2.625630000000000130e+00 1.043989999999999974e+00 8.805699999999999639e-01 3.043419999999999792e+00 1.536710000000000020e+00 5.566279999999999895e+00 3.442330000000000112e+00 4.356969999999999565e+00 1.463580000000000103e+00 3.244159999999999933e+00 9.329430000000000334e+00 2.987150000000000194e+00 9.925129999999999342e+00 1.987640000000000073e+00 1.526890000000000081e+00 5.275430000000000064e+00 2.053329999999999878e+00 3.317299999999999915e+00 1.315890000000000004e+00 7.096580000000000332e+00 5.300279999999999880e+00 2.795640000000000125e+00 6.755379999999999718e+00 9.517200000000000770e+00 1.868170000000000108e+00 9.945619999999999905e+00 8.021890000000000853e+00 1.731540000000000079e+00 5.085860000000000269e+00 7.061799999999999855e+00 1.863200000000000134e-01 8.020939999999999515e+00 8.486829999999999430e+00 4.477529999999999788e+00 8.067840000000000344e+00 6.895579999999999821e+00 8.298659999999999926e+00 2.836850000000000094e+00 5.103069999999999773e+00 7.798470000000000013e+00 2.189550000000000107e+00 9.667229999999999990e+00 8.547129999999999228e+00 4.730979999999999741e+00 6.904119999999999813e+00 8.067909999999999471e+00 2.239599999999999924e-01 7.559260000000000090e+00 5.525100000000000122e+00 2.415700000000000180e+00 7.562109999999999665e+00 9.923759999999999692e+00 2.184769999999999879e+00 8.119550000000000267e+00 7.789600000000000080e+00 7.758650000000000269e+00 2.606700000000000128e-01 6.822869999999999990e+00 7.913710000000000022e+00 4.617460000000000342e+00 6.721049999999999969e+00 9.745670000000000499e+00 2.692190000000000083e+00 8.741329999999999600e+00 5.647070000000000256e+00 3.261690000000000200e+00 5.688340000000000174e+00 6.828890000000000349e+00 1.610989999999999922e+00 9.586370000000000502e+00 8.884560000000000457e+00 2.159969999999999946e+00 5.054030000000000022e+00 1.838700000000000057e-01 9.922729999999999606e+00 4.933559999999999945e+00 5.039410000000000167e+00 5.067709999999999937e+00 9.951539999999999608e+00 9.968880000000000408e+00 4.866679999999999673e+00 9.915499999999999758e+00 5.027470000000000105e+00 8.865000000000000657e-02 1.213170000000000082e+00 3.784619999999999873e+00 9.074070000000000746e+00 8.616849999999999454e+00 3.905370000000000008e+00 1.130209999999999937e+00 3.773280000000000189e+00 1.347960000000000047e+00 8.820529999999999760e+00 6.031629999999999825e+00 1.347860000000000058e+00 1.271360000000000046e+00 1.296059999999999990e+00 8.802160000000000650e+00 3.725919999999999899e+00 8.929520000000000124e+00 8.735509999999999664e+00 6.097669999999999924e+00 3.685599999999999987e+00 6.190030000000000143e+00 3.927020000000000177e+00 6.048530000000000406e+00 6.107450000000000045e+00 6.446939999999999671e+00 6.238240000000000229e+00 3.911150000000000126e+00 3.969310000000000116e+00 3.757219999999999782e+00 3.642590000000000217e+00 6.101880000000000415e+00 8.726860000000000284e+00 1.028890000000000082e+00 3.609249999999999847e+00 9.010799999999999921e-01 1.269300000000000095e+00 6.169019999999999726e+00 6.122910000000000075e+00 9.038339999999999819e+00 8.668160000000000309e+00 3.911550000000000082e+00 8.754910000000000636e+00 1.020299999999999985e+00 8.754739999999999966e+00 6.235850000000000115e+00 8.693229999999999791e+00 1.147040000000000060e+00 6.208739999999999704e+00 1.154079999999999995e+00 2.275669999999999860e+00 7.615509999999999557e+00 7.448739999999999917e+00 7.864150000000000418e+00 2.482250000000000068e+00 7.439530000000000420e+00 7.608349999999999724e+00 7.630980000000000096e+00 2.422229999999999883e+00 9.540649999999999409e+00 2.250399999999999900e-01 9.611610000000000653e+00 3.226700000000000124e-01 4.873059999999999725e+00 5.094879999999999853e+00 4.753720000000000390e+00 9.739150000000000418e+00 4.992869999999999919e+00 4.929059999999999775e+00 5.247209999999999930e+00 9.830949999999999633e+00 2.518940000000000179e+00 2.379119999999999902e+00 2.667940000000000200e+00
2.309309999999999974e+00 5.575400000000000356e-01 4.782100000000000239e-01 3.352279999999999927e+00 1.839979999999999949e+00 5.201609999999999623e+00 2.680000000000000160e+00 4.609390000000000320e+00 1.575390000000000068e+00 3.689750000000000085e+00 8.604990000000000805e+00 3.540659999999999918e+00 9.863749999999999574e+00 1.955989999999999895e+00 1.916630000000000056e+00 5.059859999999999580e+00 2.245169999999999888e+00 2.565040000000000209e+00 1.051490000000000036e+00 7.277590000000000003e+00 5.611930000000000085e+00 2.957250000000000156e+00 7.042320000000000135e+00 9.808020000000000849e+00 2.464869999999999894e+00 9.735810000000000741e+00 7.325059999999999683e+00 2.144010000000000193e+00 5.072650000000000325e+00 7.373059999999999725e+00 1.601100000000000023e-01 8.218040000000000234e+00 8.228469999999999729e+00 4.472649999999999793e+00 7.915589999999999904e+00 7.088759999999999728e+00 8.176589999999999137e+00 2.931989999999999874e+00 5.139190000000000147e+00 7.617309999999999803e+00 2.646860000000000213e+00 9.802170000000000272e+00 8.313290000000000290e+00 4.971669999999999590e+00 6.955860000000000376e+00 7.630440000000000111e+00 4.280700000000000061e-01 7.307730000000000281e+00 5.436589999999999812e+00 3.785890000000000200e+00 8.174490000000000478e+00 9.764400000000000190e+00 2.230679999999999996e+00 7.917699999999999960e+00 7.597129999999999939e+00 8.345649999999999125e+00 9.786000000000000254e-02 7.273719999999999963e+00 7.327449999999999797e+00 4.826810000000000045e+00 6.642559999999999576e+00 9.641040000000000276e+00 2.912920000000000176e+00 9.055070000000000618e+00 5.889719999999999622e+00 3.007849999999999913e+00 5.760539999999999772e+00 6.031369999999999898e+00 1.974979999999999958e+00 9.557359999999999189e+00 8.596569999999999823e+00 1.810200000000000031e+00 4.879929999999999879e+00 3.967999999999999999e-02 9.696350000000000691e+00 5.057699999999999640e+00 5.091230000000000366e+00 5.002349999999999852e+00 9.894569999999999865e+00 9.814489999999999270e+00 4.829390000000000072e+00 9.967530000000000001e+00 5.169240000000000279e+00 9.102999999999999980e-02 1.419130000000000003e+00 3.891820000000000057e+00 9.284380000000000521e+00 8.765319999999999112e+00 3.964879999999999960e+00 1.385440000000000005e+00 3.622399999999999842e+00 1.279979999999999896e+00 8.604169999999999874e+00 6.190760000000000041e+00 1.139969999999999928e+00 9.560999999999999499e-01 1.058009999999999895e+00 8.632300000000000750e+00 3.619260000000000144e+00 8.795809999999999462e+00 8.621560000000000556e+00 6.143839999999999968e+00 3.917940000000000200e+00 6.196380000000000443e+00 3.694700000000000095e+00 6.094490000000000407e+00 6.271390000000000242e+00 6.369449999999999612e+00 6.486170000000000435e+00 4.069910000000000139e+00 3.770350000000000090e+00 3.894400000000000084e+00 3.852689999999999948e+00 6.151819999999999844e+00 8.548669999999999547e+00 1.049090000000000078e+00 3.745979999999999865e+00 9.405599999999999516e-01 1.111750000000000016e+00 6.030820000000000292e+00 6.067560000000000286e+00 8.895049999999999457e+00 8.509259999999999380e+00 3.779319999999999791e+00 8.847830000000000084e+00 9.599999999999999645e-01 8.769289999999999807e+00 6.110809999999999853e+00 8.846460000000000434e+00 1.030650000000000066e+00 6.483830000000000204e+00 1.321469999999999922e+00 2.292679999999999829e+00 7.425910000000000011e+00 7.539699999999999847e+00 7.577460000000000306e+00 2.784190000000000165e+00 7.426370000000000360e+00 7.532119999999999926e+00 7.568660000000000387e+00 2.283100000000000129e+00 9.823539999999999495e+00 2.340000000000000066e-02 9.923090000000000188e+00 9.762999999999999456e-02 4.765249999999999986e+00 5.129999999999999893e+00 5.068670000000000009e+00 9.899430000000000618e+00 4.889039999999999608e+00 4.813830000000000275e+00 5.330490000000000173e+00 9.931449999999999889e+00 2.535789999999999988e+00 2.191790000000000127e+00 2.848780000000000090e+00
1.964220000000000077e+00 8.152199999999999447e-01 5.267399999999999860e-01 3.209379999999999900e+00 1.906630000000000047e+00 4.749489999999999768e+00 2.777410000000000156e+00 4.560100000000000264e+00 1.723719999999999919e+00 3.630830000000000002e+00 8.748010000000000730e+00 3.554170000000000051e+00 9.888550000000000395e+00 1.898330000000000073e+00 1.715209999999999901e+00 4.868059999999999832e+00 2.500599999999999934e+00 2.227609999999999868e+00 7.059100000000000374e-01 7.316620000000000346e+00 5.746769999999999712e+00 3.267430000000000057e+00 7.127970000000000361e+00 9.522050000000000125e+00 2.496430000000000149e+00 9.823999999999999844e+00 7.511849999999999916e+00 2.090930000000000177e+00 5.140119999999999578e+00 7.142689999999999984e+00 2.452400000000000135e-01 8.250489999999999213e+00 8.473520000000000607e+00 4.507609999999999673e+00 7.762559999999999683e+00 6.667250000000000121e+00 7.844789999999999708e+00 2.596729999999999983e+00 5.359860000000000291e+00 7.860190000000000232e+00 2.341140000000000221e+00 9.758139999999999148e+00 8.207900000000000418e+00 4.885130000000000194e+00 7.245470000000000077e+00 7.033870000000000289e+00 3.614299999999999735e-01 7.159229999999999983e+00 5.405439999999999579e+00 3.614770000000000039e+00 8.025679999999999481e+00 9.763700000000000045e+00 1.861339999999999995e+00 8.071419999999999817e+00 7.569270000000000387e+00 8.722269999999999968e+00 2.871400000000000063e-01 7.056160000000000210e+00 7.969940000000000246e+00 4.676879999999999704e+00 6.943069999999999631e+00 9.628059999999999619e+00 2.898039999999999949e+00 9.197469999999999146e+00 5.779550000000000409e+00 3.024900000000000144e+00 6.127710000000000434e+00 5.951609999999999623e+00 1.942280000000000006e+00 9.812879999999999825e+00 8.635220000000000340e+00 1.744839999999999947e+00 4.895739999999999981e+00 8.121000000000000441e-02 9.772679999999999367e+00 5.056320000000000370e+00 4.929509999999999614e+00 4.798409999999999620e+00 5.239999999999999866e-03 9.939059999999999562e+00 5.073940000000000339e+00 9.963269999999999627e+00 5.073500000000000121e+00 1.946499999999999897e-01 1.142579999999999929e+00 3.888290000000000024e+00 8.975740000000000052e+00 8.732789999999999608e+00 3.988939999999999930e+00 1.420789999999999997e+00 3.797270000000000145e+00 1.460620000000000029e+00 8.788830000000000808e+00 6.257489999999999775e+00 1.068719999999999892e+00 9.658200000000000118e-01 1.204779999999999962e+00 8.721669999999999590e+00 3.912049999999999805e+00 8.793179999999999552e+00 8.765909999999999869e+00 6.368490000000000428e+00 3.854169999999999874e+00 6.121809999999999974e+00 3.603479999999999794e+00 6.199720000000000120e+00 6.168960000000000221e+00 6.002740000000000187e+00 6.351860000000000284e+00 3.810319999999999929e+00 3.680379999999999985e+00 3.812320000000000153e+00 3.718620000000000037e+00 6.009949999999999903e+00 8.757429999999999382e+00 9.927899999999999503e-01 3.825969999999999871e+00 1.190609999999999946e+00 1.275959999999999983e+00 6.155859999999999665e+00 5.862490000000000201e+00 8.692989999999999995e+00 8.554809999999999803e+00 3.658520000000000216e+00 8.970150000000000290e+00 1.026289999999999925e+00 8.870660000000000878e+00 6.394190000000000040e+00 8.967230000000000700e+00 1.136530000000000040e+00 6.219459999999999766e+00 1.447500000000000009e+00 2.306659999999999933e+00 7.499329999999999607e+00 7.337559999999999860e+00 7.632929999999999993e+00 2.672219999999999818e+00 7.598040000000000127e+00 7.749520000000000408e+00 7.559450000000000003e+00 2.447200000000000042e+00 9.762760000000000105e+00 1.834899999999999864e-01 9.942130000000000578e+00 9.908129999999999882e+00 4.831369999999999720e+00 5.223390000000000200e+00 5.257399999999999629e+00 7.151000000000000412e-02 4.832169999999999632e+00 4.663409999999999833e+00 5.113139999999999574e+00 9.009999999999999953e-02 2.488370000000000193e+00 2.219739999999999824e+00 2.478400000000000158e+00
2.059670000000000112e+00 8.334099999999999842e-01 3.668399999999999994e-01 3.357120000000000104e+00 1.912320000000000020e+00 4.530149999999999899e+00 2.694160000000000110e+00 4.699320000000000164e+00 1.816580000000000084e+00 3.877769999999999939e+00 8.650660000000000238e+00 3.396199999999999886e+00 9.947440000000000282e+00 1.946050000000000058e+00 1.721410000000000107e+00 4.867569999999999730e+00 2.680520000000000014e+00 1.402260000000000062e+00 8.145700000000000163e-01 7.425169999999999604e+00 5.893670000000000186e+00 3.013049999999999784e+00 6.943839999999999790e+00 9.612650000000000361e+00 2.759139999999999926e+00 9.734249999999999403e+00 7.201200000000000045e+00 2.008379999999999832e+00 5.179160000000000430e+00 7.116579999999999906e+00 2.689900000000000069e-01 8.484040000000000248e+00 8.542220000000000368e+00 4.642459999999999809e+00 7.566790000000000127e+00 6.912849999999999717e+00 7.865529999999999688e+00 3.094930000000000181e+00 5.211870000000000225e+00 7.755180000000000184e+00 1.949429999999999996e+00 9.712120000000000530e+00 7.847699999999999676e+00 4.766049999999999898e+00 7.489449999999999719e+00 6.812389999999999723e+00 3.286899999999999822e-01 6.886000000000000121e+00 5.211050000000000182e+00 3.210939999999999905e+00 7.869290000000000340e+00 9.803689999999999571e+00 1.778950000000000031e+00 7.981489999999999974e+00 7.855319999999999858e+00 8.459920000000000329e+00 2.294200000000000128e-01 7.713599999999999568e+00 7.376459999999999795e+00 4.828319999999999723e+00 7.080230000000000246e+00 9.933759999999999479e+00 3.150529999999999831e+00 9.049759999999999138e+00 5.647409999999999819e+00 2.839809999999999945e+00 6.202469999999999928e+00 5.908470000000000333e+00 1.980439999999999978e+00 1.309999999999999967e-03 8.527200000000000557e+00 1.890360000000000040e+00 4.900229999999999642e+00 9.901809999999999334e+00 9.913240000000000052e+00 5.036520000000000330e+00 4.935859999999999914e+00 4.900929999999999787e+00 1.322000000000000119e-01 1.699799999999999922e-01 5.064860000000000362e+00 9.813850000000000406e+00 5.134909999999999641e+00 9.941079999999999472e+00 1.020040000000000058e+00 3.930779999999999941e+00 8.887499999999999289e+00 8.624750000000000583e+00 3.932170000000000165e+00 1.184970000000000079e+00 3.874350000000000183e+00 1.283979999999999899e+00 8.800269999999999371e+00 6.192540000000000155e+00 9.500600000000000156e-01 1.200550000000000006e+00 1.349189999999999889e+00 8.839710000000000178e+00 4.016009999999999636e+00 8.904569999999999652e+00 8.958059999999999690e+00 6.305189999999999628e+00 3.993310000000000137e+00 6.160050000000000026e+00 3.666549999999999976e+00 6.253960000000000186e+00 6.014680000000000248e+00 6.244659999999999656e+00 6.138230000000000075e+00 3.806919999999999860e+00 3.615470000000000184e+00 3.798690000000000122e+00 3.752439999999999998e+00 6.039839999999999876e+00 8.917279999999999873e+00 1.352870000000000017e+00 3.901299999999999990e+00 1.365909999999999958e+00 1.358959999999999946e+00 6.202689999999999593e+00 5.998499999999999943e+00 8.712410000000000210e+00 8.620919999999999916e+00 3.450369999999999937e+00 8.920780000000000598e+00 1.021209999999999951e+00 8.654210000000000846e+00 6.470979999999999954e+00 8.895789999999999864e+00 1.081439999999999957e+00 6.296459999999999724e+00 1.145149999999999890e+00 2.339999999999999858e+00 7.457580000000000098e+00 7.597150000000000070e+00 7.526640000000000441e+00 2.513450000000000184e+00 7.404180000000000206e+00 7.725089999999999790e+00 7.622040000000000148e+00 2.588960000000000150e+00 9.741329999999999600e+00 2.789300000000000113e-01 1.035999999999999976e-01 9.867810000000000414e+00 4.994839999999999947e+00 5.343490000000000073e+00 5.216490000000000293e+00 9.943329999999999558e+00 4.909679999999999822e+00 4.726799999999999891e+00 4.764789999999999637e+00 1.062599999999999933e-01 2.482479999999999798e+00 2.390979999999999883e+00 2.209459999999999980e+00
2.204400000000000137e+00 3.199699999999999767e-01 2.885900000000000132e-01 3.206430000000000113e+00 1.931869999999999976e+00 4.625000000000000000e+00 2.720610000000000195e+00 4.872300000000000075e+00 1.960660000000000069e+00 3.738039999999999807e+00 8.785830000000000695e+00 3.320359999999999978e+00 1.059800000000000048e-01 2.123610000000000220e+00 1.673229999999999995e+00 5.245120000000000005e+00 2.914000000000000146e+00 1.703670000000000018e+00 1.056380000000000097e+00 7.506610000000000227e+00 5.542849999999999611e+00 3.049879999999999924e+00 6.669699999999999740e+00 9.565549999999999997e+00 3.047330000000000094e+00 9.691179999999999239e+00 6.908800000000000274e+00 1.964579999999999993e+00 5.275859999999999772e+00 7.032569999999999766e+00 2.001000000000000001e-01 8.319760000000000488e+00 8.398759999999999337e+00 4.606959999999999944e+00 7.285440000000000360e+00 7.244939999999999714e+00 7.766350000000000087e+00 2.732629999999999892e+00 5.287700000000000067e+00 7.901690000000000325e+00 1.824500000000000011e+00 9.772199999999999775e+00 8.211199999999999832e+00 4.709430000000000227e+00 7.239099999999999646e+00 6.917340000000000266e+00 2.656899999999999817e-01 7.122270000000000323e+00 5.200680000000000192e+00 3.158420000000000005e+00 7.937319999999999709e+00 9.772009999999999863e+00 1.750860000000000083e+00 8.032790000000000319e+00 7.832349999999999923e+00 8.516709999999999781e+00 3.313300000000000134e-01 8.034940000000000637e+00 7.114749999999999908e+00 4.917460000000000164e+00 6.957860000000000156e+00 9.547599999999999199e+00 3.384349999999999969e+00 9.168260000000000076e+00 5.528669999999999973e+00 2.865390000000000104e+00 6.085079999999999600e+00 5.902350000000000207e+00 2.185490000000000155e+00 9.786099999999999355e+00 8.532329999999999970e+00 1.863720000000000043e+00 4.942980000000000373e+00 9.778309999999999391e+00 9.904329999999999856e+00 5.010819999999999830e+00 5.014160000000000394e+00 4.958750000000000213e+00 2.141599999999999893e-01 1.868200000000000138e-01 4.936239999999999739e+00 9.749209999999999710e+00 5.220650000000000013e+00 9.940329999999999444e+00 9.372099999999999875e-01 3.995029999999999859e+00 8.823339999999999961e+00 8.496969999999999246e+00 4.013959999999999972e+00 1.123220000000000107e+00 3.850740000000000052e+00 1.093930000000000069e+00 8.730819999999999581e+00 6.163560000000000372e+00 7.968499999999999472e-01 1.268059999999999965e+00 1.355019999999999891e+00 8.990389999999999660e+00 3.719939999999999802e+00 9.114240000000000563e+00 8.951309999999999434e+00 6.193349999999999689e+00 3.951340000000000074e+00 6.273539999999999672e+00 3.769029999999999880e+00 6.287370000000000125e+00 5.995289999999999786e+00 6.184090000000000309e+00 6.255139999999999922e+00 3.890509999999999913e+00 3.724699999999999900e+00 3.780530000000000168e+00 3.729579999999999895e+00 6.008580000000000254e+00 8.834630000000000649e+00 1.209840000000000027e+00 3.755100000000000104e+00 1.383180000000000076e+00 1.373720000000000052e+00 6.095220000000000304e+00 6.093650000000000233e+00 8.594030000000000058e+00 8.725350000000000605e+00 3.644280000000000186e+00 8.603669999999999263e+00 9.620600000000000263e-01 8.664609999999999701e+00 6.456990000000000229e+00 8.756850000000000023e+00 1.076780000000000070e+00 6.301689999999999792e+00 1.183619999999999894e+00 2.369940000000000158e+00 7.568889999999999674e+00 7.435069999999999624e+00 7.509789999999999743e+00 2.414449999999999985e+00 7.617149999999999643e+00 7.783750000000000391e+00 7.445850000000000080e+00 2.682580000000000187e+00 9.706910000000000593e+00 1.720200000000000062e-01 9.956429999999999225e+00 9.750840000000000174e+00 5.334819999999999673e+00 5.236959999999999837e+00 5.024670000000000414e+00 9.869059999999999278e+00 5.209139999999999660e+00 4.770749999999999602e+00 4.797170000000000378e+00 8.198999999999999344e-02 2.499490000000000212e+00 2.520999999999999908e+00 2.301779999999999937e+00
2.110640000000000072e+00 4.951200000000000045e-01 7.713200000000000056e-01 3.300759999999999916e+00 2.015859999999999985e+00 4.933469999999999800e+00 2.818169999999999842e+00 4.785359999999999836e+00 1.932600000000000096e+00 3.820409999999999862e+00 8.600609999999999644e+00 3.578850000000000087e+00 9.088000000000000245e-02 1.849790000000000045e+00 1.848449999999999926e+00 4.971330000000000027e+00 2.883500000000000174e+00 1.710180000000000033e+00 1.136679999999999913e+00 7.390830000000000233e+00 5.331999999999999851e+00 2.967880000000000074e+00 6.734329999999999927e+00 9.604950000000000543e+00 2.614650000000000141e+00 9.796829999999999927e+00 7.273290000000000255e+00 1.888719999999999954e+00 5.198900000000000077e+00 6.808099999999999596e+00 2.111200000000000021e-01 8.207879999999999399e+00 8.320579999999999643e+00 4.714330000000000354e+00 7.739550000000000374e+00 6.833759999999999835e+00 7.562190000000000190e+00 2.653939999999999966e+00 5.164600000000000080e+00 7.921859999999999680e+00 1.770559999999999912e+00 9.813760000000000261e+00 8.191420000000000812e+00 4.762299999999999756e+00 7.147579999999999600e+00 7.100450000000000372e+00 1.982700000000000018e-01 7.060740000000000016e+00 5.314890000000000114e+00 3.112000000000000099e+00 8.040430000000000632e+00 9.844079999999999941e+00 1.798980000000000024e+00 7.991080000000000183e+00 7.991209999999999702e+00 8.612759999999999749e+00 2.062599999999999989e-01 7.820520000000000138e+00 7.106489999999999974e+00 4.759240000000000137e+00 6.859370000000000189e+00 9.612059999999999604e+00 3.212009999999999810e+00 9.113479999999999137e+00 5.650929999999999787e+00 2.749130000000000074e+00 5.880869999999999820e+00 6.126000000000000334e+00 1.943899999999999961e+00 9.849159999999999471e+00 8.473629999999999995e+00 1.844570000000000043e+00 4.981150000000000411e+00 9.747740000000000293e+00 9.906639999999999446e+00 5.123660000000000103e+00 4.934560000000000279e+00 4.933530000000000193e+00 3.002000000000000154e-02 1.247100000000000014e-01 4.857129999999999725e+00 9.899649999999999395e+00 5.002939999999999721e+00 9.957440000000000069e+00 9.949500000000000011e-01 3.878159999999999830e+00 8.625220000000000553e+00 8.751920000000000144e+00 3.804879999999999818e+00 1.147599999999999953e+00 3.864700000000000024e+00 1.146409999999999929e+00 8.915649999999999409e+00 6.179579999999999629e+00 8.276400000000000423e-01 1.184879999999999933e+00 1.347020000000000106e+00 9.050929999999999254e+00 3.672140000000000182e+00 8.940390000000000725e+00 8.854179999999999495e+00 6.058169999999999611e+00 3.989900000000000002e+00 6.177590000000000359e+00 3.746719999999999828e+00 6.248890000000000278e+00 6.075109999999999566e+00 6.242670000000000385e+00 6.212290000000000312e+00 3.870589999999999975e+00 3.584379999999999900e+00 3.898890000000000189e+00 3.849660000000000082e+00 6.204220000000000290e+00 8.717930000000000845e+00 1.188109999999999999e+00 3.708979999999999944e+00 1.126409999999999911e+00 1.427769999999999984e+00 6.003230000000000288e+00 6.163649999999999629e+00 8.643900000000000361e+00 8.681119999999999948e+00 3.754230000000000178e+00 8.572580000000000311e+00 1.095290000000000097e+00 8.767879999999999896e+00 6.368269999999999875e+00 8.932779999999999276e+00 1.063649999999999984e+00 6.147269999999999790e+00 1.297670000000000101e+00 2.402940000000000076e+00 7.463910000000000267e+00 7.317569999999999908e+00 7.553519999999999790e+00 2.414759999999999796e+00 7.475550000000000139e+00 7.653450000000000308e+00 7.674719999999999764e+00 2.460350000000000037e+00 9.815659999999999386e+00 1.259500000000000064e-01 9.976969999999999672e+00 9.776939999999999742e+00 5.405020000000000380e+00 5.122539999999999871e+00 4.942700000000000315e+00 9.937699999999999534e+00 5.387410000000000032e+00 4.724579999999999558e+00 4.982249999999999623e+00 1.649100000000000010e-01 2.539979999999999905e+00 2.446579999999999977e+00 2.369839999999999947e+00
2.136730000000000018e+00 3.887300000000000200e-01 3.900699999999999723e-01 3.232920000000000016e+00 1.859799999999999898e+00 4.948850000000000193e+00 2.669210000000000083e+00 4.671319999999999695e+00 2.006489999999999885e+00 3.649329999999999963e+00 8.819570000000000576e+00 3.678240000000000176e+00 5.269999999999999685e-02 1.562400000000000011e+00 1.829790000000000028e+00 4.876009999999999955e+00 2.920469999999999899e+00 1.824940000000000007e+00 9.726799999999999891e-01 7.378409999999999691e+00 5.631429999999999936e+00 2.980859999999999843e+00 6.934730000000000061e+00 9.690979999999999706e+00 2.452760000000000051e+00 9.901730000000000587e+00 7.541479999999999961e+00 2.309680000000000177e+00 5.300679999999999836e+00 7.186399999999999899e+00 1.540400000000000102e-01 8.167980000000000018e+00 8.324030000000000484e+00 4.591499999999999915e+00 7.864609999999999879e+00 6.848629999999999995e+00 7.859210000000000029e+00 2.877130000000000187e+00 5.227999999999999758e+00 8.126590000000000202e+00 1.814070000000000071e+00 9.677210000000000534e+00 8.063200000000000145e+00 4.809510000000000396e+00 7.123409999999999798e+00 6.927450000000000330e+00 3.525699999999999945e-01 6.980380000000000251e+00 5.329189999999999650e+00 3.166189999999999838e+00 7.995860000000000412e+00 9.871489999999999654e+00 2.037360000000000060e+00 7.913590000000000124e+00 7.791229999999999656e+00 8.454110000000000014e+00 3.042300000000000004e-01 8.069879999999999498e+00 7.101650000000000240e+00 4.735479999999999912e+00 7.049070000000000391e+00 9.500590000000000757e+00 3.199030000000000040e+00 8.999119999999999564e+00 5.494360000000000355e+00 2.685400000000000009e+00 5.868699999999999584e+00 6.146270000000000344e+00 2.267510000000000137e+00 8.845000000000000084e-02 8.142150000000000887e+00 1.699640000000000040e+00 4.954900000000000304e+00 1.212000000000000056e-02 9.933709999999999596e+00 5.034419999999999895e+00 5.044229999999999769e+00 4.922950000000000159e+00 9.947029999999999816e+00 1.775599999999999956e-01 4.971339999999999648e+00 9.957919999999999661e+00 4.936759999999999593e+00 9.766809999999999548e+00 1.334200000000000053e+00 3.771590000000000220e+00 8.829739999999999256e+00 8.793689999999999785e+00 3.718710000000000182e+00 9.904100000000000126e-01 3.854480000000000128e+00 1.435859999999999914e+00 8.939870000000000871e+00 6.327119999999999855e+00 9.797000000000000153e-01 1.095960000000000045e+00 1.177079999999999904e+00 9.007550000000000168e+00 3.753950000000000120e+00 8.829280000000000683e+00 8.945019999999999527e+00 6.277180000000000426e+00 3.754950000000000010e+00 6.288610000000000255e+00 4.010060000000000180e+00 6.220860000000000056e+00 6.202840000000000131e+00 6.170620000000000438e+00 6.180710000000000370e+00 3.926699999999999857e+00 3.592229999999999812e+00 3.849549999999999805e+00 3.778389999999999915e+00 6.032379999999999853e+00 8.700839999999999463e+00 1.282129999999999992e+00 3.823850000000000193e+00 1.202369999999999939e+00 1.343409999999999993e+00 6.103539999999999743e+00 5.962950000000000195e+00 8.766939999999999955e+00 8.599729999999999208e+00 3.865540000000000198e+00 8.815080000000000027e+00 1.255880000000000107e+00 8.650140000000000384e+00 6.237980000000000302e+00 8.892150000000000887e+00 1.102579999999999893e+00 6.211719999999999686e+00 1.051609999999999934e+00 2.287589999999999790e+00 7.594310000000000116e+00 7.580569999999999808e+00 7.562190000000000190e+00 2.534009999999999874e+00 7.553829999999999600e+00 7.743380000000000152e+00 7.454509999999999970e+00 2.436139999999999972e+00 9.887879999999999114e+00 2.152000000000000093e-02 9.872139999999999915e+00 9.845200000000000173e+00 5.110009999999999941e+00 4.986939999999999706e+00 4.979499999999999815e+00 7.986000000000000043e-02 5.156450000000000422e+00 4.649689999999999657e+00 4.938010000000000232e+00 1.925800000000000012e-01 2.620200000000000085e+00 2.221130000000000049e+00 2.446899999999999853e+00