-2.184872163100000080e+02
-2.204518183300000089e+02
-2.214928023200000098e+02
-2.221084366499999874e+02
-2.222005072199999915e+02
-2.222576386000000070e+02
-2.219318788799999993e+02
-2.216177374000000100e+02
-2.215344086700000048e+02
-2.215620164000000045e+02
-2.218546328699999890e+02
-2.218140879899999902e+02
-2.217671678600000007e+02
-2.215996753100000092e+02
-2.212025543899999889e+02
-2.216775338699999907e+02
-2.213630489299999908e+02
-2.218073594200000116e+02
-2.218979077399999937e+02
-2.216568952300000035e+02
-2.215524418400000002e+02
-2.216587030700000014e+02
-2.215832846700000118e+02
-2.213793185199999982e+02
-2.216608340399999975e+02
-2.213867764899999884e+02
-2.214188554300000078e+02
-2.210718782900000008e+02
-2.212606935100000101e+02
-2.209672302699999875e+02
-2.215097147200000052e+02
-2.211873479500000030e+02
-2.214451678099999867e+02
-2.214717248299999994e+02
-2.207400222999999926e+02
-2.207993132999999943e+02
-2.209594644800000083e+02
-2.212543018800000141e+02
-2.212577374299999917e+02
-2.211365579600000046e+02
-2.209280232000000126e+02
-2.207518334300000049e+02
-2.212902301000000023e+02
-2.213398680699999943e+02
-2.211356203199999868e+02
-2.204625393700000018e+02
-2.208768241299999886e+02
-2.209644067000000121e+02
-2.207867796799999951e+02
-2.204656595399999901e+02
-2.208008700400000066e+02
-2.211669001799999990e+02
-2.211443902800000103e+02
-2.205306265300000064e+02
-2.207646151099999940e+02
-2.201324566799999900e+02
-2.206782537999999931e+02
-2.207769080699999904e+02
-2.206827328399999999e+02
-2.206943252099999881e+02
-2.201214991100000020e+02
-2.204235928800000011e+02
-2.198437656799999900e+02
-2.204118845600000043e+02
-2.205704544300000123e+02
-2.199450591799999870e+02
-2.195573219199999926e+02
-2.196773552800000004e+02
-2.200822650800000133e+02
-2.204263677499999972e+02
-2.206794923299999880e+02
-2.199729859800000042e+02
-2.196618917700000111e+02
-2.195494848200000035e+02
-2.200170676600000093e+02
-2.199356050400000129e+02
-2.201384509899999955e+02
-2.204421944800000119e+02
-2.199436703099999875e+02
-2.193198031599999922e+02
-2.189197393999999974e+02
-2.194853714900000057e+02
-2.194558072400000128e+02
-2.199844797099999880e+02
-2.202202309399999933e+02
-2.200428259100000048e+02
-2.200756850699999916e+02
-2.196404620300000090e+02
-2.187984827100000018e+02
-2.192079346399999906e+02
-2.192155497599999876e+02
-2.195080428999999924e+02
-2.194914325800000086e+02
-2.195363065299999903e+02
-2.191114585400000010e+02
-2.191495898000000011e+02
-2.189256892600000128e+02
-2.189529171000000076e+02
-2.200479703299999983e+02
-2.193506287200000031e+02
-2.188496942099999956e+02
-2.186043336200000056e+02
-2.183367693099999940e+02
-2.184614524600000038e+02
-2.182718029000000115e+02
-2.188221870700000125e+02
-2.183264637499999878e+02
-2.178821429600000101e+02
-2.185067393600000116e+02
-2.186054713300000003e+02
-2.189833667199999923e+02
-2.193677916499999867e+02
-2.190372280999999930e+02
-2.187983564799999954e+02
-2.184550623099999882e+02
-2.176397494299999948e+02
-2.171840216999999882e+02
-2.172981028199999969e+02
-2.181190707899999950e+02
-2.184339794199999858e+02
-2.178293450300000131e+02
-2.176550730300000112e+02
-2.173316034100000138e+02
-2.176861121700000012e+02
-2.180015096600000106e+02
-2.181821538499999917e+02
-2.189975431999999955e+02
-2.178907000899999957e+02
-2.184061211700000058e+02
-2.176377562799999907e+02
-2.168733205599999962e+02
-2.168995139900000027e+02
-2.169458069400000113e+02
-2.165455214099999921e+02
-2.174630472400000087e+02
-2.169325075700000127e+02
-2.181210694300000057e+02
-2.169595133299999929e+02
-2.162953223300000047e+02
-2.156471427799999958e+02
-2.162985790699999882e+02
-2.165165283899999906e+02
-2.177777844599999924e+02
-2.180851386900000080e+02
-2.179570272400000022e+02
-2.163082097500000032e+02
-2.164555272499999887e+02
-2.172437855100000093e+02
-2.165508561800000109e+02
-2.169432497100000035e+02
-2.161830303099999924e+02
-2.167123568700000078e+02
-2.167400399900000139e+02
-2.167479041599999903e+02
-2.158803720900000087e+02
-2.162437756799999988e+02
-2.154667331100000069e+02
-2.153910348800000065e+02
-2.163195597499999963e+02
-2.174902692400000035e+02
-2.171480615199999988e+02
-2.165713855399999943e+02
-2.168648985799999878e+02
-2.168247008499999993e+02
-2.162593682399999864e+02
-2.155965904500000079e+02
-2.147956097500000112e+02
-2.158556176099999959e+02
-2.155415449699999897e+02
-2.162604154199999869e+02
-2.164847393100000090e+02
-2.151865078399999902e+02
-2.149836012099999891e+02
-2.147513568399999997e+02
-2.152246374100000139e+02
-2.161030798399999924e+02
-2.149927722099999983e+02
-2.143307778500000040e+02
-2.147456722899999875e+02
-2.148650577399999975e+02
-2.161910654899999997e+02
-2.165320520299999885e+02
-2.164738285200000121e+02
-2.149920653099999868e+02
-2.138738137500000107e+02
-2.124853950000000111e+02
-2.145857948500000134e+02
-2.155335495100000003e+02
-2.162484379100000069e+02
-2.158404071100000010e+02
-2.151681758699999989e+02
-2.141369779499999879e+02
-2.146057790199999999e+02
-2.157557131400000117e+02
-2.165485331600000052e+02
-2.155917924999999968e+02
-2.140238758700000119e+02
-2.136868233300000099e+02
-2.156430323300000111e+02
-2.141353953400000023e+02
