-2.853269999999999973e-01 -5.444980000000000375e-01 -8.327090000000000325e-01 2.760880000000000001e-01 1.908699999999999980e-02 -4.243160000000000265e-01 -3.030010000000000203e-01 2.896420000000000106e-01 1.868049999999999988e-01 6.559059999999999890e-01 3.906769999999999965e-01 8.339670000000000138e-01 1.180589999999999973e-01 -2.196839999999999904e-01 -6.666099999999999803e-02 -8.290530000000000399e-01 -2.027869999999999950e-01 2.644799999999999929e-01 3.211140000000000105e-01 1.713659999999999906e-01 2.839380000000000237e-01 4.192690000000000028e-01 9.173999999999999863e-03 -7.409100000000000408e-02 -1.089529999999999943e-01 -3.261680000000000135e-01 4.332300000000000040e-02 6.335589999999999833e-01 1.113320000000000004e-01 3.542850000000000166e-01 1.654889999999999972e-01 2.462030000000000052e-01 -7.983800000000000618e-02 4.437900000000000178e-02 -3.743009999999999948e-01 2.058190000000000019e-01 -1.882409999999999917e-01 -5.504699999999999871e-02 1.969990000000000074e-01 -1.952200000000000116e-02 -2.046169999999999933e-01 2.206639999999999990e-01 -5.347939999999999916e-01 1.354430000000000078e-01 2.909160000000000079e-01 -1.455690000000000039e-01 1.689940000000000053e-01 6.022690000000000543e-01 -4.784399999999999764e-02 5.225220000000000420e-01 -2.795199999999999907e-01 4.841399999999999870e-02 -5.013560000000000239e-01 1.622119999999999951e-01 1.194820000000000049e-01 3.651139999999999941e-01 -9.804850000000000509e-01 8.302600000000000258e-02 -4.215419999999999723e-01 5.880579999999999696e-01 3.838440000000000185e-01 -4.263700000000000268e-01 1.828279999999999905e-01 -1.922139999999999960e-01 -6.409800000000000220e-02 -4.138180000000000192e-01 -7.710090000000000554e-01 -3.675809999999999911e-01 1.063219999999999998e-01 -1.415810000000000124e-01 2.408000000000000071e-02 -6.855660000000000087e-01 -1.017489000000000088e+00 -1.250467999999999913e+00 -2.266910000000000036e-01 -3.735080000000000067e-01 -1.039099999999999920e-02 7.053580000000000405e-01 5.666470000000000118e-01 -3.531500000000000195e-01 7.427369999999999806e-01 -1.900540000000000007e-01 5.535980000000000345e-01 -1.468990000000000018e+00 4.915039999999999965e-01 1.310010000000000063e-01 -1.968590000000000062e-01 -4.209040000000000004e-01 2.099250000000000005e-01 9.267790000000000195e-01 -3.039599999999999941e-02 2.191160000000000052e-01 1.333799999999999986e-01 4.818459999999999965e-01 6.650030000000000108e-01 -5.168070000000000164e-01 -1.305514000000000063e+00 3.411370000000000235e-01 5.481110000000000149e-01 -4.219829999999999970e-01 -9.992299999999999516e-01 -7.694010000000000016e-01 5.015319999999999778e-01 -2.608219999999999983e-01 -2.257359999999999922e-01 -9.146500000000000463e-02 1.543090000000000017e-01 -7.681189999999999962e-01 9.554749999999999632e-01 5.551139999999999963e-01 -4.163689999999999891e-01 2.410819999999999907e-01 5.416670000000000096e-01 3.655100000000000016e-01 -4.433600000000000041e-02 1.284399999999999986e-01 -4.658709999999999796e-01 3.697909999999999808e-01 2.039310000000000012e-01 -5.247829999999999995e-01 6.322889999999999899e-01 -2.476019999999999888e-01 -1.766520000000000035e-01 2.175459999999999894e-01 3.209339999999999971e-01 -7.571879999999999722e-01 4.345559999999999978e-01 -8.704600000000000115e-01 8.211739999999999595e-01 -1.220129999999999965e-01 4.135489999999999999e-01 8.821350000000000025e-01 -2.633019999999999805e-01 -9.187900000000000234e-02 -7.788200000000000678e-02 -9.295919999999999739e-01 7.084580000000000322e-01 -8.041730000000000267e-01 9.922400000000000664e-02 -1.616000000000000075e-02 8.762879999999999558e-01 7.172859999999999792e-01 -1.207369999999999971e-01 7.042040000000000521e-01 -5.965620000000000367e-01 -2.732859999999999734e-01 -2.756460000000000021e-01 4.421510000000000162e-01 3.928840000000000110e-01 -5.002410000000000467e-01 -2.245700000000000127e-02 1.271519999999999873e-01 1.090129999999999988e-01 -2.287300000000000097e-02 8.238299999999999790e-02 6.708380000000000454e-01
-1.042378000000000027e+00 1.906720000000000081e-01 2.907900000000000068e-02 -2.953529999999999767e-01 -2.624369999999999759e-01 -1.749870000000000037e-01 3.050999999999999893e-03 -6.323199999999999654e-02 5.946300000000000197e-02 -3.395219999999999905e-01 -1.545950000000000102e-01 -2.570490000000000275e-01 2.314940000000000053e-01 -4.119700000000000029e-01 -2.871259999999999923e-01 -2.253779999999999950e-01 4.507439999999999780e-01 3.972570000000000268e-01 -1.115180000000000060e-01 -3.637549999999999950e-01 -1.364110000000000045e-01 -3.170479999999999965e-01 -1.842249999999999999e-01 -4.123640000000000083e-01 -4.714309999999999889e-01 -1.473820000000000130e-01 2.841600000000000029e-02 4.614700000000000052e-02 1.797980000000000134e-01 -2.260949999999999904e-01 -8.722999999999999851e-03 1.097489999999999993e-01 4.515469999999999762e-01 2.494000000000000106e-01 -3.080459999999999865e-01 -2.507240000000000024e-01 -4.836700000000000027e-02 8.710999999999999993e-03 7.970900000000000207e-02 1.577320000000000111e-01 -1.783119999999999983e-01 -2.638610000000000122e-01 -2.264470000000000094e-01 -2.189429999999999987e-01 -2.537780000000000036e-01 -1.587439999999999962e-01 8.722299999999999498e-02 1.714360000000000051e-01 5.758200000000000124e-02 -2.511860000000000204e-01 -5.472569999999999935e-01 3.507950000000000235e-01 -1.998300000000000076e-01 4.294200000000000239e-01 6.090039999999999898e-01 -3.015400000000000025e-02 2.731319999999999859e-01 2.717640000000000056e-01 4.671120000000000272e-01 -8.952499999999999902e-01 3.155899999999999817e-01 -8.432399999999999618e-02 -1.892689999999999928e-01 5.145399999999999974e-02 -1.984190000000000120e-01 -2.522659999999999902e-01 4.185809999999999809e-01 8.903899999999999315e-02 5.068890000000000340e-01 1.006299999999999972e-01 5.653699999999999698e-02 -2.592960000000000265e-01 4.300329999999999986e-01 8.577000000000000179e-01 3.277919999999999723e-01 6.508080000000000531e-01 -2.676649999999999863e-01 -4.881010000000000071e-01 -7.675269999999999593e-01 6.739749999999999908e-01 -6.921499999999999875e-02 6.928079999999999794e-01 -1.252572999999999936e+00 1.439891000000000032e+00 -4.585130000000000039e-01 -2.459899999999999934e-02 -2.999200000000000130e-02 4.151190000000000158e-01 7.277500000000000080e-01 -3.221240000000000214e-01 7.678709999999999702e-01 -3.655499999999999722e-02 4.862600000000000255e-01 -3.565320000000000156e-01 -3.895100000000000229e-01 -4.465470000000000272e-01 1.271039999999999948e-01 2.598449999999999926e-01 5.582270000000000287e-01 2.037319999999999964e-01 -1.003040000000000043e-01 -3.835999999999999965e-01 -4.118000000000000133e-02 -3.461520000000000152e-01 4.872900000000000148e-02 -3.669169999999999932e-01 -6.034070000000000267e-01 2.918499999999999914e-02 -1.103342999999999963e+00 4.240610000000000213e-01 4.607609999999999761e-01 1.850060000000000038e-01 1.830249999999999932e-01 2.065269999999999884e-01 5.174809999999999688e-01 -6.938109999999999555e-01 1.947639999999999927e-01 7.691259999999999764e-01 1.724070000000000047e-01 9.818699999999999650e-02 -1.649140000000000050e-01 3.249300000000000105e-02 -5.590199999999999614e-01 1.529570000000000096e-01 -1.698099999999999957e-02 5.029209999999999514e-01 -6.088689999999999936e-01 1.234607000000000010e+00 -5.776670000000000416e-01 -8.231299999999999728e-02 -4.792040000000000188e-01 -1.924559999999999882e-01 6.506099999999999384e-02 1.573569999999999969e-01 -3.849899999999999850e-02 -1.988189999999999957e-01 -7.491899999999999948e-02 2.663670000000000204e-01 -2.906969999999999832e-01 -9.947200000000000486e-02 7.907149999999999457e-01 4.539999999999999765e-03 4.568570000000000131e-01 -2.471589999999999898e-01 -1.906300000000000008e-02 3.731410000000000005e-01 1.179970000000000047e-01 3.622399999999999926e-02 2.893749999999999933e-01 3.164150000000000018e-01 -2.964010000000000256e-01 -2.422680000000000111e-01 8.453000000000000444e-03 1.189029999999999948e-01 2.020510000000000084e-01 -5.194260000000000543e-01
4.335749999999999882e-01 -2.960940000000000238e-01 -4.275619999999999976e-01 -2.302879999999999927e-01 -2.652780000000000138e-01 3.328519999999999812e-01 5.441800000000000109e-02 3.768639999999999768e-01 2.129199999999999843e-02 -4.831300000000000178e-02 -3.054060000000000108e-01 -1.605489999999999973e-01 -1.148239999999999955e-01 -5.238099999999999701e-02 2.310510000000000064e-01 3.760800000000000254e-01 1.669190000000000118e-01 -9.206399999999999306e-02 -1.634829999999999894e-01 -5.410439999999999694e-01 -1.920830000000000037e-01 -2.161740000000000050e-01 -8.934100000000000374e-02 -5.052100000000000340e-02 -7.110000000000000001e-03 -6.404600000000000570e-02 1.728700000000000028e-02 -9.833400000000000474e-02 4.338600000000000095e-02 -1.874450000000000005e-01 1.354210000000000136e-01 3.726700000000000151e-02 5.836000000000000042e-03 1.882999999999999952e-02 -1.318010000000000015e-01 2.025599999999999970e-02 1.032140000000000002e-01 4.041989999999999750e-01 -4.119920000000000249e-01 6.489799999999999736e-02 -7.569399999999999740e-02 4.372329999999999828e-01 1.365059999999999885e-01 2.105039999999999967e-01 -2.428949999999999998e-01 1.436499999999999930e-02 1.253170000000000117e-01 1.037030000000000035e-01 -9.331599999999999617e-02 -1.711860000000000048e-01 -1.187799999999999967e-01 3.219770000000000132e-01 1.163699999999999977e-02 5.070500000000000007e-02 3.357890000000000041e-01 -2.193410000000000082e-01 -1.165799999999999996e-02 2.694900000000000073e-01 -4.525440000000000018e-01 1.493150000000000033e-01 -3.524000000000000049e-02 4.218620000000000148e-01 -3.285120000000000262e-01 2.485800000000000162e-02 5.635400000000000131e-02 1.003000000000000003e-01 -2.458199999999999968e-02 -5.424400000000000055e-02 1.689479999999999871e-01 1.142790000000000056e-01 -3.724810000000000065e-01 3.409980000000000233e-01 -3.227929999999999966e-01 -4.568980000000000263e-01 1.130609999999999948e-01 -6.907820000000000071e-01 5.097829999999999862e-01 2.710629999999999984e-01 3.982700000000000129e-01 -8.108200000000000129e-02 1.070160000000000000e-01 -5.751200000000000062e-02 8.153200000000000447e-01 -9.881189999999999696e-01 -7.703500000000000625e-02 -3.414920000000000178e-01 4.610779999999999879e-01 -2.077960000000000085e-01 -2.963959999999999928e-01 -2.331399999999999861e-01 -1.262169999999999959e-01 2.118499999999999897e-02 -1.608839999999999992e-01 2.409119999999999873e-01 -1.556349999999999956e-01 3.082360000000000100e-01 -3.320620000000000238e-01 1.701020000000000032e-01 4.825999999999999734e-02 3.536159999999999859e-01 4.699909999999999921e-01 -5.336429999999999785e-01 4.844950000000000090e-01 -4.836030000000000051e-01 5.056200000000000278e-02 -1.503089999999999982e-01 -3.282959999999999767e-01 2.918749999999999956e-01 -3.570169999999999733e-01 -6.210799999999999654e-02 -9.237399999999999778e-02 7.971770000000000245e-01 6.592329999999999579e-01 -3.231099999999999944e-02 -1.299960000000000004e-01 3.417470000000000230e-01 -1.115290000000000031e-01 -2.530589999999999784e-01 -2.579330000000000234e-01 -2.895300000000000096e-01 -9.072000000000000203e-03 3.894810000000000216e-01 1.360850000000000115e-01 -8.992700000000000693e-02 9.123799999999999966e-02 -9.610000000000000486e-03 -1.058540000000000036e-01 -5.118700000000000472e-01 4.781090000000000062e-01 5.651500000000000273e-02 1.748129999999999962e-01 -1.551069999999999949e-01 2.652410000000000045e-01 2.189069999999999905e-01 5.318730000000000402e-01 -6.281170000000000364e-01 -2.933509999999999729e-01 -2.535370000000000124e-01 -2.668860000000000121e-01 3.172099999999999920e-01 1.999000000000000082e-02 -8.833000000000000573e-02 3.845609999999999862e-01 3.867000000000000211e-03 4.801799999999999818e-02 2.044189999999999896e-01 2.067330000000000001e-01 -5.113800000000000290e-02 -9.214100000000000068e-02 1.599800000000000111e-01 1.527610000000000079e-01 -3.227039999999999909e-01 -9.626400000000000234e-02 -2.251380000000000048e-01 1.520940000000000070e-01 1.254800000000000013e-02
-7.381999999999999673e-02 -2.090480000000000116e-01 -2.415309999999999957e-01 -7.679099999999999815e-02 -2.927099999999999841e-02 2.323900000000000132e-01 2.087640000000000051e-01 4.726850000000000218e-01 6.056500000000000078e-02 -8.930200000000000637e-02 -2.560560000000000058e-01 4.206999999999999802e-03 -7.670699999999999741e-02 1.215510000000000063e-01 1.958610000000000073e-01 -3.794299999999999895e-01 6.813399999999999457e-01 2.043750000000000011e-01 -1.490879999999999983e-01 -2.836790000000000145e-01 -2.676560000000000050e-01 1.050660000000000066e-01 -2.139230000000000020e-01 5.550009999999999666e-01 7.769600000000000117e-02 -5.378499999999999948e-02 6.597899999999999598e-02 -2.380900000000000030e-02 -8.914900000000000602e-02 -1.952599999999999891e-01 7.480599999999999750e-02 -1.986489999999999922e-01 -6.584399999999999975e-02 -2.417310000000000014e-01 1.327999999999999970e-03 7.080000000000000182e-02 1.629710000000000047e-01 3.755800000000000111e-02 -1.082459999999999950e-01 2.615290000000000115e-01 6.575599999999999501e-02 -1.306450000000000111e-01 2.440980000000000094e-01 3.689499999999999724e-02 -1.022529999999999967e-01 1.740889999999999938e-01 1.409890000000000032e-01 8.987399999999999556e-02 2.940590000000000148e-01 -9.457100000000000228e-02 1.095519999999999966e-01 -1.526899999999999924e-01 1.716850000000000043e-01 1.600630000000000108e-01 -3.945599999999999802e-02 -1.255700000000000045e-02 2.603509999999999991e-01 2.020699999999999927e-02 -9.026199999999999501e-02 2.128039999999999932e-01 1.805200000000000138e-01 -4.892779999999999907e-01 4.115699999999999914e-02 2.109250000000000014e-01 7.316999999999999893e-02 1.525799999999999934e-01 -1.102080000000000004e-01 -1.134460000000000052e-01 1.249900000000000039e-01 -9.852800000000000447e-02 -6.726899999999999546e-02 2.029950000000000088e-01 1.795140000000000069e-01 -1.157389999999999947e-01 -1.758720000000000006e-01 1.970069999999999877e-01 2.555220000000000269e-01 1.068410000000000054e-01 1.997559999999999891e-01 -2.977580000000000227e-01 2.105699999999999933e-02 -1.192499999999999949e-01 1.980200000000000016e-01 3.609479999999999911e-01 2.244869999999999921e-01 -5.880619999999999736e-01 -3.804640000000000244e-01 -2.571100000000000121e-02 3.659149999999999903e-01 -1.565819999999999990e-01 -1.573819999999999941e-01 2.273129999999999873e-01 -1.899849999999999872e-01 1.675000000000000100e-02 -6.761719999999999953e-01 -3.398909999999999987e-01 -3.704899999999999860e-01 2.722749999999999893e-01 -1.228910000000000002e-01 2.412179999999999880e-01 2.801370000000000249e-01 -1.001819999999999933e-01 -3.379429999999999934e-01 2.493259999999999921e-01 -1.305040000000000089e-01 -4.370490000000000208e-01 -2.042470000000000119e-01 -5.709589999999999943e-01 3.134819999999999829e-01 -2.469250000000000056e-01 2.097500000000000059e-02 -1.188939999999999997e-01 1.385859999999999870e-01 -1.034120000000000039e-01 1.065109999999999946e-01 -1.287739999999999996e-01 -1.774660000000000126e-01 -9.899700000000000166e-02 -3.611700000000000327e-02 -2.797549999999999759e-01 -1.490499999999999881e-01 8.833799999999999986e-02 5.353869999999999463e-01 4.496870000000000034e-01 -1.535009999999999986e-01 -7.168299999999999672e-02 1.290439999999999920e-01 -1.205630000000000035e-01 5.763999999999999679e-02 -1.582320000000000115e-01 1.697859999999999925e-01 3.722070000000000101e-01 9.104399999999999993e-02 4.182980000000000032e-01 -5.296359999999999957e-01 -2.779869999999999841e-01 -2.916909999999999781e-01 4.735570000000000057e-01 8.662000000000000255e-02 2.583030000000000048e-01 -4.151610000000000023e-01 -8.156299999999999661e-02 -1.730059999999999931e-01 -2.466079999999999939e-01 -1.503210000000000102e-01 3.088699999999999779e-01 -1.919669999999999987e-01 -2.097529999999999950e-01 1.260910000000000086e-01 2.626169999999999893e-01 -2.312000000000000166e-02 2.964979999999999838e-01 -1.059159999999999963e-01 -2.254899999999999960e-02 -2.227369999999999906e-01 4.455950000000000188e-01
-6.533590000000000231e-01 2.319319999999999993e-01 -4.626399999999999957e-02 4.690400000000000125e-02 -7.941900000000000348e-02 -1.034439999999999943e-01 3.338849999999999874e-01 4.599899999999999822e-02 1.322619999999999907e-01 1.861849999999999894e-01 -6.668999999999999928e-02 3.059640000000000137e-01 -2.003759999999999986e-01 -1.795420000000000071e-01 -6.056500000000000078e-02 -2.911659999999999804e-01 1.065129999999999966e-01 5.670399999999999746e-02 -2.037200000000000122e-02 -1.455349999999999977e-01 -2.445800000000000057e-02 -2.858609999999999762e-01 7.879300000000000193e-02 -7.433000000000000371e-03 -7.531200000000000394e-02 1.479659999999999864e-01 -5.909000000000000190e-03 -3.814000000000000029e-02 -1.666910000000000058e-01 -8.561699999999999866e-02 3.030640000000000001e-01 1.215659999999999935e-01 -5.941699999999999759e-02 3.141120000000000023e-01 1.164690000000000031e-01 -9.836200000000000498e-02 -5.885699999999999960e-02 -3.975999999999999673e-02 -3.993700000000000028e-02 -8.624400000000000122e-02 -5.161600000000000216e-02 3.538890000000000091e-01 -6.598500000000000199e-02 -2.129890000000000116e-01 1.100079999999999947e-01 7.291599999999999471e-02 -1.686340000000000061e-01 -1.234890000000000015e-01 1.952959999999999974e-01 -9.744099999999999984e-02 6.357300000000000451e-02 1.887759999999999994e-01 2.033799999999999844e-02 -4.411799999999999750e-02 -4.839600000000000152e-02 -1.460299999999999931e-01 1.560140000000000138e-01 -9.690699999999999315e-02 1.279810000000000114e-01 4.566200000000000120e-02 1.394749999999999879e-01 -5.680500000000000133e-02 -1.139509999999999967e-01 -5.948699999999999821e-02 1.369940000000000047e-01 -1.853210000000000135e-01 4.273400000000000115e-02 3.558700000000000058e-02 -1.673399999999999888e-02 2.057900000000000007e-01 -3.573699999999999793e-02 2.134780000000000011e-01 1.556410000000000016e-01 4.451579999999999981e-01 -2.494159999999999988e-01 2.876199999999999868e-01 -6.821220000000000061e-01 -5.811359999999999859e-01 -5.497880000000000544e-01 8.612999999999999823e-02 -1.961739999999999873e-01 2.783680000000000043e-01 -6.778570000000000428e-01 -7.352300000000000502e-02 1.282530000000000059e-01 -3.093750000000000111e-01 -1.288300000000000001e-01 3.743870000000000253e-01 1.836460000000000037e-01 -7.187899999999999845e-02 1.771129999999999927e-01 1.234940000000000065e-01 3.339150000000000174e-01 -4.967400000000000287e-02 -1.242219999999999991e-01 -1.481510000000000049e-01 6.780200000000000116e-02 -8.899999999999999491e-05 -1.902379999999999904e-01 -4.009229999999999738e-01 -5.157300000000000079e-02 1.255539999999999989e-01 -2.400599999999999956e-01 -1.095460000000000045e-01 -2.692120000000000068e-01 -1.779620000000000091e-01 2.351800000000000002e-01 5.786149999999999904e-01 -1.776159999999999961e-01 -4.185200000000000031e-02 -1.577500000000000083e-02 2.778999999999999873e-02 6.276840000000000197e-01 2.562719999999999998e-01 3.031579999999999830e-01 6.131099999999999745e-02 1.074780000000000041e-01 -3.123199999999999935e-02 1.518839999999999912e-01 4.908699999999999869e-02 1.457100000000000062e-02 -1.601710000000000078e-01 -1.686489999999999934e-01 -7.318800000000000305e-02 -2.333959999999999924e-01 2.015790000000000082e-01 -1.284970000000000001e-01 3.520989999999999953e-01 4.175380000000000202e-01 -5.816139999999999644e-01 2.769440000000000235e-01 -1.888600000000000001e-02 -2.794900000000000162e-02 -3.642119999999999802e-01 3.485770000000000257e-01 -1.249979999999999980e-01 4.426379999999999759e-01 -4.898069999999999924e-01 -6.644400000000000306e-02 4.492780000000000107e-01 -5.324699999999999989e-01 3.095260000000000233e-01 4.918399999999999855e-02 2.631839999999999735e-01 3.432009999999999783e-01 -3.737650000000000139e-01 1.288930000000000076e-01 -2.759999999999999867e-04 1.314259999999999873e-01 -1.946469999999999867e-01 -8.030900000000000538e-02 1.566460000000000075e-01 7.882599999999999330e-02 1.944240000000000135e-01 -3.677710000000000146e-01 1.674000000000000141e-02
2.154220000000000024e-01 -2.411949999999999927e-01 -3.894179999999999864e-01 -2.076909999999999867e-01 -2.717330000000000023e-01 -2.543279999999999985e-01 1.855799999999999950e-01 2.116449999999999998e-01 1.485680000000000056e-01 4.715699999999999753e-02 4.109199999999999658e-02 7.270000000000000073e-02 -1.734179999999999888e-01 8.521199999999999608e-02 -1.788059999999999927e-01 -4.568000000000000012e-03 -1.133969999999999978e-01 -1.865459999999999896e-01 8.893600000000000116e-02 1.568150000000000099e-01 2.105690000000000062e-01 -1.744799999999999962e-01 1.779600000000000071e-01 -2.469369999999999898e-01 -1.626000000000000015e-02 3.364500000000000129e-02 -5.083700000000000024e-02 7.140399999999999525e-02 5.339100000000000096e-02 1.357679999999999998e-01 3.256299999999999750e-01 7.018800000000000039e-02 -9.680700000000000416e-02 -2.506289999999999907e-01 3.731600000000000195e-02 1.528190000000000104e-01 6.759300000000000030e-02 -3.702899999999999942e-02 1.163440000000000030e-01 5.296399999999999719e-02 8.854499999999999871e-02 -1.785809999999999897e-01 3.602299999999999947e-02 -8.778199999999999892e-02 2.464040000000000119e-01 -6.131899999999999851e-02 6.475300000000000500e-02 -4.160900000000000015e-02 1.520559999999999967e-01 -8.488800000000000512e-02 5.881600000000000023e-02 -1.326170000000000126e-01 -3.092900000000000163e-02 1.373219999999999996e-01 -2.878100000000000103e-01 -2.645580000000000154e-01 2.150950000000000084e-01 5.241699999999999832e-02 1.375550000000000106e-01 -1.548859999999999959e-01 1.166000000000000023e-02 2.686970000000000192e-01 3.780499999999999833e-02 -2.176520000000000121e-01 9.384000000000000674e-02 -2.004279999999999951e-01 2.388290000000000135e-01 2.896380000000000066e-01 3.067810000000000259e-01 3.659199999999999953e-02 -9.703699999999999826e-02 7.489700000000000524e-02 -1.371459999999999901e-01 2.010049999999999892e-01 1.174619999999999970e-01 -5.207429999999999559e-01 7.091229999999999478e-01 3.480090000000000128e-01 3.758040000000000269e-01 2.916810000000000236e-01 2.719099999999999850e-01 2.000159999999999993e-01 2.359439999999999871e-01 -7.102199999999999624e-01 1.501609999999999889e-01 1.532810000000000006e-01 4.507849999999999913e-01 -2.824019999999999864e-01 -1.830890000000000017e-01 2.489520000000000066e-01 -4.421120000000000050e-01 6.014499999999999708e-02 -1.097899999999999987e-01 2.909340000000000259e-01 4.303310000000000191e-01 5.126079999999999526e-01 -1.919750000000000068e-01 9.265199999999999825e-02 -2.254740000000000077e-01 -6.530000000000000214e-03 -2.047420000000000073e-01 3.071289999999999853e-01 -2.585040000000000115e-01 -1.365850000000000120e-01 -1.032990000000000019e-01 1.706249999999999989e-01 -4.009190000000000254e-01 -3.497569999999999846e-01 2.907170000000000032e-01 -1.720540000000000125e-01 2.827000000000000068e-01 8.121399999999999453e-02 8.940999999999999295e-03 -2.690350000000000241e-01 -1.372899999999999954e-01 7.105200000000000404e-02 -2.666200000000000236e-01 3.110419999999999852e-01 -1.509060000000000124e-01 2.913500000000000117e-02 -1.806879999999999875e-01 -3.297229999999999883e-01 -1.383649999999999880e-01 -6.393699999999999384e-02 4.504899999999999877e-02 -2.256990000000000107e-01 -2.724619999999999820e-01 -1.470889999999999975e-01 -1.110300000000000002e-02 1.120540000000000008e-01 1.184110000000000024e-01 -2.672019999999999951e-01 -6.361400000000000388e-02 1.079780000000000045e-01 2.929249999999999909e-01 -7.134600000000000664e-02 2.762240000000000251e-01 1.429420000000000135e-01 2.641700000000000159e-01 -7.681259999999999755e-01 3.370100000000000179e-02 3.051730000000000276e-01 1.962049999999999905e-01 -1.020599999999999979e-02 -3.054199999999999970e-02 -4.812890000000000224e-01 -2.163299999999999945e-02 6.357999999999999763e-02 7.534699999999999731e-02 -3.519800000000000151e-01 -7.367300000000000237e-02 -4.420999999999999930e-01 -2.002770000000000106e-01 6.165699999999999653e-02 -2.384900000000000075e-01 2.876960000000000073e-01
1.292049999999999865e-01 8.195600000000000107e-02 1.813939999999999997e-01 -9.620499999999999885e-02 -8.568199999999999428e-02 -4.103559999999999985e-01 2.295200000000000018e-02 2.625730000000000008e-01 1.413799999999999953e-02 -1.187369999999999953e-01 -1.807370000000000088e-01 -1.301480000000000137e-01 1.960500000000000090e-02 1.818390000000000006e-01 -1.850269999999999970e-01 3.030399999999999761e-01 -1.696139999999999870e-01 -3.061900000000000177e-01 4.021999999999999881e-02 2.784299999999999969e-02 -1.167720000000000008e-01 2.003149999999999931e-01 6.731700000000000184e-02 1.847519999999999996e-01 2.911499999999999852e-02 -4.335999999999999577e-03 1.157099999999999969e-02 -1.610699999999999979e-02 -2.225959999999999883e-01 -3.066199999999999828e-02 -1.016620000000000024e-01 3.613399999999999945e-02 1.731179999999999941e-01 -1.980979999999999963e-01 -7.030899999999999650e-02 -5.161999999999999922e-02 -1.968530000000000002e-01 2.381699999999999928e-01 9.571999999999999953e-02 -2.437290000000000012e-01 -2.051739999999999953e-01 1.720530000000000115e-01 -7.760100000000000331e-02 7.501299999999999635e-02 6.417499999999999594e-02 -2.104699999999999974e-02 5.931800000000000267e-02 5.698999999999999899e-02 4.676899999999999807e-02 1.539709999999999968e-01 1.993100000000000080e-02 -1.637399999999999967e-02 -1.104649999999999938e-01 9.841999999999999360e-02 -1.019499999999999920e-02 1.005930000000000019e-01 -1.566289999999999905e-01 -1.463740000000000041e-01 -3.595999999999999804e-03 1.057310000000000055e-01 -1.689529999999999921e-01 2.769650000000000167e-01 -1.386409999999999865e-01 3.056000000000000036e-02 -1.519169999999999965e-01 -3.261870000000000047e-01 -2.099570000000000047e-01 -1.326650000000000051e-01 -1.906499999999999861e-01 -4.599239999999999995e-01 5.138700000000000490e-01 1.311849999999999961e-01 5.257439999999999891e-01 -2.565839999999999788e-01 -1.172220000000000067e-01 4.397550000000000070e-01 -3.154819999999999847e-01 3.768290000000000251e-01 3.164359999999999951e-01 -7.086810000000000054e-01 3.964059999999999806e-01 -1.293529999999999958e-01 2.475009999999999988e-01 1.078105000000000091e+00 -1.679110000000000047e-01 2.228360000000000063e-01 -4.260280000000000178e-01 2.801319999999999921e-01 1.087820000000000037e-01 2.492860000000000076e-01 -4.124530000000000141e-01 -5.956310000000000215e-01 8.221299999999999442e-02 1.916100000000000025e-01 2.144220000000000015e-01 4.593409999999999993e-01 -2.266749999999999876e-01 -1.489070000000000116e-01 1.395919999999999939e-01 3.633330000000000171e-01 -4.153999999999999707e-03 -7.140849999999999698e-01 -4.121730000000000116e-01 2.544150000000000023e-01 -9.799229999999999885e-01 2.160600000000000021e-02 -4.695929999999999827e-01 -2.029620000000000035e-01 -4.962799999999999850e-02 5.175819999999999865e-01 5.043320000000000025e-01 2.624710000000000099e-01 2.509549999999999836e-01 5.767250000000000432e-01 -1.147080000000000044e-01 -1.581839999999999913e-01 -3.096829999999999861e-01 -1.658899999999999958e-02 2.321320000000000050e-01 -6.883200000000000429e-02 -4.151500000000000329e-02 1.208530000000000021e-01 4.182859999999999912e-01 -2.977029999999999954e-01 -8.679499999999999715e-02 -7.018670000000000186e-01 2.157709999999999906e-01 -3.156099999999999878e-02 -4.952369999999999828e-01 7.273200000000000498e-02 -6.857220000000000537e-01 1.200360000000000038e-01 3.195560000000000067e-01 -1.459900000000000087e-02 -3.639279999999999737e-01 6.047999999999999904e-02 1.376549999999999996e-01 -4.681219999999999826e-01 2.489250000000000074e-01 1.870030000000000026e-01 2.006560000000000010e-01 -1.373520000000000019e-01 1.310880000000000101e-01 1.958249999999999991e-01 -1.204019999999999951e-01 9.407500000000000584e-02 2.937899999999999956e-01 3.054180000000000228e-01 -1.451900000000000066e-02 1.568660000000000054e-01 1.928500000000000006e-02 1.972199999999999995e-02 2.107159999999999866e-01 -2.567539999999999822e-01 1.291699999999999966e-02 1.225920000000000065e-01