3.168234558171599158e+00 4.190371990134488911e+00 -3.903194993025529413e+00 4.190371990134488911e+00 8.469078453239021753e-01 2.722622567648114611e+00 -3.903194993025529413e+00 2.722622567648114611e+00 4.412349733384607120e+00
-3.250985309714964799e+00 3.933297455650241470e-01 7.135375569802425710e-01 3.933297455650241470e-01 -2.349859529338020891e+00 2.003501289241194083e+00 7.135375569802425710e-01 2.003501289241194083e+00 -2.272158943618339144e+00
-2.796910879162604502e+00 -1.388708743624290198e+00 1.382318484658203284e+00 -1.388708743624290198e+00 -6.316082329000906270e+00 1.365468054219473315e-01 1.382318484658203284e+00 1.365468054219473315e-01 -1.740117149544800679e+00
-3.890222146910880863e+00 -4.232845497786751565e+00 6.243717299311161151e-01 -4.232845497786751565e+00 -2.868376309289162318e+00 8.424780929920711037e-01 6.243717299311161151e-01 8.424780929920711037e-01 -1.246429317537620207e+00
-2.206835607061127469e+00 -1.793913203423382452e+00 -8.353247254310049164e-02 -1.793913203423382452e+00 -1.587551267763206653e+00 2.220230334350235424e+00 -8.353247254310049164e-02 2.220230334350235424e+00 -7.305120701173433151e-01
2.847884051653254422e-01 -6.218094222097628743e-01 1.515738406081210909e+00 -6.218094222097628743e-01 -5.172139116182498109e-01 6.431702587342648103e-01 1.515738406081210909e+00 6.431702587342648103e-01 -4.256383985667658187e+00
-1.808300592299455722e+00 -1.404349367753906508e+00 1.677145180121711654e+00 -1.404349367753906508e+00 -4.961918208602996039e+00 2.443635028631615747e+00 1.677145180121711654e+00 2.443635028631615747e+00 -1.422422012771587196e+00
-2.481052166325275810e+00 -8.649556738019086310e-01 -3.861695534555475540e+00 -8.649556738019086310e-01 -4.743042532812142831e+00 1.198310047109494292e+00 -3.861695534555475540e+00 1.198310047109494292e+00 -4.506044578924261579e+00
4.179291405169992535e-01 -1.575726186608486623e+00 -1.101153294285299733e+00 -1.575726186608486623e+00 -4.275703661803963662e+00 2.256021988695240399e+00 -1.101153294285299733e+00 2.256021988695240399e+00 5.970052908054761520e-01
5.378550684922022151e-01 -9.062814164942430972e-01 -9.567768705961664510e-01 -9.062814164942430972e-01 -2.288624717692120392e+00 1.625067671615563203e+00 -9.567768705961664510e-01 1.625067671615563203e+00 2.016064662451219736e+00
-8.593967689149049072e-01 -8.260371354579639780e-01 -3.611619264259330997e+00 -8.260371354579639780e-01 -3.547921411050773521e+00 2.491146293837725734e-01 -3.611619264259330997e+00 2.491146293837725734e-01 -4.418857870914146169e+00
-2.122918478153077881e+00 -1.796680247597047142e+00 2.694766001863911353e-01 -1.796680247597047142e+00 -4.047999502024040908e+00 -1.768364575828872132e-01 2.694766001863911353e-01 -1.768364575828872132e-01 -5.459558074553281237e+00
-4.103272140013233482e+00 -6.740048092793634593e-01 -1.050676452588132248e+00 -6.740048092793634593e-01 -2.445626555940464186e+00 1.229262476218045075e+00 -1.050676452588132248e+00 1.229262476218045075e+00 -1.469002657739917561e+00
4.931282190375290142e+00 1.965432717381088601e+00 -2.162811065679231426e+00 1.965432717381088601e+00 -5.363760027276244458e+00 1.081535819672905019e+00 -2.162811065679231426e+00 1.081535819672905019e+00 1.893880429365671247e+00
-8.709985012125576187e-02 -1.644046120331349004e+00 1.535188369050805468e+00 -1.644046120331349004e+00 -2.216799447740288032e-01 1.595256803332021800e+00 1.535188369050805468e+00 1.595256803332021800e+00 3.064650321571806391e+00
-9.362970212300958384e-01 1.511823596947617920e-01 -5.511635583059429244e+00 1.511823596947617920e-01 -4.683830269149683367e+00 1.503292911434637835e+00 -5.511635583059429244e+00 1.503292911434637835e+00 -3.975187774620162262e+00
-2.982451738036190125e+00 -6.624030769817107478e-01 -1.069077916756494995e+00 -6.624030769817107478e-01 -5.216995011643476232e+00 3.384336985653868979e+00 -1.069077916756494995e+00 3.384336985653868979e+00 -4.395207708604706554e+00
-3.031712569289325643e+00 -3.857482926945793089e+00 -2.838273846664450151e+00 -3.857482926945793089e+00 -9.318548606284275948e+00 4.060109973385013782e-01 -2.838273846664450151e+00 4.060109973385013782e-01 -3.086557121969139228e+00
-7.274906564120187102e-01 7.280738450943605722e-01 2.497722676851368562e-01 7.280738450943605722e-01 -7.327765793626070945e+00 2.959732195964530188e+00 2.497722676851368562e-01 2.959732195964530188e+00 -7.203503175342815368e+00
-3.569350493059380014e+00 8.538068433533085866e-01 -1.115590316240721247e+00 8.538068433533085866e-01 -4.059694296345472075e+00 2.930374229530041674e+00 -1.115590316240721247e+00 2.930374229530041674e+00 -1.087876445559643690e+00
1.135865429154480299e+00 1.365734832020969902e+00 1.299394017337118512e-01 1.365734832020969902e+00 -4.794828446977120961e+00 2.504423142563381610e+00 1.299394017337118512e-01 2.504423142563381610e+00 -3.437810424516686503e+00
-6.647854647904266612e-01 2.456291463865418745e+00 -3.249148885779079787e+00 2.456291463865418745e+00 -3.754792085774269150e+00 4.624376044225401716e-01 -3.249148885779079787e+00 4.624376044225401716e-01 -2.963994436653560882e+00
-3.377016106450002386e+00 3.279691841983007894e-01 -5.899549118840575979e+00 3.279691841983007894e-01 -6.386486852056394881e+00 -7.517488239434746422e-01 -5.899549118840575979e+00 -7.517488239434746422e-01 -1.188805312414304760e+00
-7.994151925225478905e-01 -3.283600446981681520e-01 -5.193481340302243954e-01 -3.283600446981681520e-01 -5.502273543467365968e+00 1.819157828406884780e+00 -5.193481340302243954e-01 1.819157828406884780e+00 -3.748060599387662783e+00
-5.782390235039038373e+00 1.332164257976799160e+00 -7.340794476954985992e-01 1.332164257976799160e+00 -4.528156115773906087e+00 2.218077499533505303e+00 -7.340794476954985992e-01 2.218077499533505303e+00 9.808116892705553980e-02
-1.795681381875163796e+00 -2.239518989811947858e+00 1.196696972030676154e+00 -2.239518989811947858e+00 -5.082427325260541195e+00 2.426635698954841214e+00 1.196696972030676154e+00 2.426635698954841214e+00 -7.652117967166868207e-01
-4.027308712070739816e+00 2.285789428034351811e+00 -3.393140653103263737e+00 2.285789428034351811e+00 -3.795677334887388010e+00 2.509808331672666704e+00 -3.393140653103263737e+00 2.509808331672666704e+00 -3.225163700184038973e+00
-3.926410865890672119e-01 2.950339135697874315e+00 1.260202497056758686e+00 2.950339135697874315e+00 -2.704121837321055377e+00 -5.146702163016521059e-01 1.260202497056758686e+00 -5.146702163016521059e-01 -2.596957814873270820e+00
-3.363956402446494298e+00 -3.688482291765011190e-01 -3.106534436406809263e+00 -3.688482291765011190e-01 -6.266430637247903057e+00 6.545238256351764150e-01 -3.106534436406809263e+00 6.545238256351764150e-01 -4.209660645596201789e+00
-1.040371384488452344e+00 -1.502951684014118550e-01 -2.466453836861972615e-01 -1.502951684014118550e-01 -3.889558304474598494e+00 3.608281439673161284e+00 -2.466453836861972615e-01 3.608281439673161284e+00 -3.265242411757748986e+00
3.350791228149371803e-01 4.102546256227764809e-01 -1.826652423388470003e+00 4.102546256227764809e-01 -4.770619912525012829e+00 4.809643921162572333e+00 -1.826652423388470003e+00 4.809643921162572333e+00 2.080078926540621875e+00
3.505516148882614758e+00 2.475877917803221084e+00 1.342506550885990135e+00 2.475877917803221084e+00 1.045886860431026300e+00 1.846772432929265850e+00 1.342506550885990135e+00 1.846772432929265850e+00 -1.580639861463962959e+00
-2.460553704554449883e+00 -5.493203098216473679e-01 1.733577991340669255e+00 -5.493203098216473679e-01 -2.718602288220906882e+00 2.683778478923192434e+00 1.733577991340669255e+00 2.683778478923192434e+00 -4.278731279644206964e+00
-1.152635205839269483e+00 -1.417644828884318323e-02 -1.195995904784882269e+00 -1.417644828884318323e-02 -6.199121977516760751e+00 3.761318835708563846e+00 -1.195995904784882269e+00 3.761318835708563846e+00 -2.324757599457644819e+00
-5.420602311399825624e+00 5.534646719472260390e-01 1.923964279585627657e-01 5.534646719472260390e-01 -2.522719136438129617e+00 -3.132560782390046317e+00 1.923964279585627657e-01 -3.132560782390046317e+00 -2.727920898868540167e+00
-2.532738814331557453e+00 -8.801433960824722735e-01 4.711978429275058833e-01 -8.801433960824722735e-01 -5.846367274318928331e+00 2.314768942238810023e+00 4.711978429275058833e-01 2.314768942238810023e+00 -4.885384000247998681e-01
8.505186518464871170e-01 -5.982275053844267054e-01 2.813184325053911028e+00 -5.982275053844267054e-01 -4.102862667108610140e+00 -8.398847645961251551e-01 2.813184325053911028e+00 -8.398847645961251551e-01 1.071416875620780917e+00
-3.855261846644959078e+00 2.897852154287102522e+00 -5.334315202952896739e-02 2.897852154287102522e+00 -2.983183825956576829e+00 -3.313789767495253447e+00 -5.334315202952896739e-02 -3.313789767495253447e+00 -9.289203048119625272e-01
-2.211159889099343356e+00 5.229589405528094481e-01 9.291436536690296233e-01 5.229589405528094481e-01 -8.096948236690618472e+00 9.156558643561434341e-01 9.291436536690296233e-01 9.156558643561434341e-01 -4.677650950770827265e+00
-6.948699354238749848e+00 5.007233210047945526e-01 -1.834171834909729792e+00 5.007233210047945526e-01 -4.968761369418134954e+00 4.576691063241573154e+00 -1.834171834909729792e+00 4.576691063241573154e+00 -4.472883477784713513e+00
-1.064691593369093553e-01 -1.469114332168450998e+00 -2.073093070622356038e+00 -1.469114332168450998e+00 -3.995500112343432164e+00 -2.510503194783542114e+00 -2.073093070622356038e+00 -2.510503194783542114e+00 -4.118993417896790632e+00
-2.185499587076299211e+00 -1.170658217777601928e+00 -1.965383084301740357e+00 -1.170658217777601928e+00 9.628817393560008819e-03 -2.114760040735209845e+00 -1.965383084301740357e+00 -2.114760040735209845e+00 -1.910004976018933320e-01
4.198573856496786938e+00 1.443385784661303184e+00 -2.947323926127468408e+00 1.443385784661303184e+00 2.848523077549863114e+00 4.947561840401514921e+00 -2.947323926127468408e+00 4.947561840401514921e+00 8.831275849782858067e-01
-1.539394772525569444e+00 -1.507567560393505701e+00 -1.865484103843555230e+00 -1.507567560393505701e+00 -3.362740392002462553e+00 -2.337414034691447817e+00 -1.865484103843555230e+00 -2.337414034691447817e+00 1.716696540227346413e+00
-4.464234913708280850e+00 -1.538054679383166867e+00 -4.005389503403571083e-02 -1.538054679383166867e+00 -5.023134407844140448e+00 2.051149045415511907e+00 -4.005389503403571083e-02 2.051149045415511907e+00 -6.269514092302412855e+00
-6.593512630152853937e+00 -5.036659421966538375e+00 -3.400858596941916390e-01 -5.036659421966538375e+00 -4.484441781137936900e+00 5.163391285947369624e-01 -3.400858596941916390e-01 5.163391285947369624e-01 -3.184483187523231784e+00
-1.491039744970539260e-01 3.007355135599173668e+00 -6.047821739258545826e+00 3.007355135599173668e+00 -3.380409768250438596e+00 2.754759986526105209e-01 -6.047821739258545826e+00 2.754759986526105209e-01 3.534123414991960921e+00
1.242688224181746071e+00 -2.455658642103728972e+00 1.034036962736632148e+00 -2.455658642103728972e+00 4.493084141079449978e+00 3.914784317053344953e+00 1.034036962736632148e+00 3.914784317053344953e+00 2.997124517118515907e+00
5.880229442704270504e+00 -4.778480551466792292e+00 -4.104413700838242640e+00 -4.778480551466792292e+00 -2.239134333446999303e-01 -1.269688619347192793e+00 -4.104413700838242640e+00 -1.269688619347192793e+00 1.542397573826138180e+00
-4.172584735323060734e+00 5.420019122717483206e+00 -1.773030085287607083e+00 5.420019122717483206e+00 5.629756107773339346e-01 6.387715270770264464e-01 -1.773030085287607083e+00 6.387715270770264464e-01 -4.358181431410913298e+00
-2.816751702632066312e+00 -3.906011670278542347e+00 1.302347185558339504e+00 -3.906011670278542347e+00 -1.009445012746559378e+01 -1.535467555122139283e+00 1.302347185558339504e+00 -1.535467555122139283e+00 -2.880815599800816251e+00
-2.680980414074935148e+00 -3.974368828810916077e-02 -4.053775551633193253e+00 -3.974368828810916077e-02 -4.798308966666416708e+00 1.367019087949105927e-01 -4.053775551633193253e+00 1.367019087949105927e-01 -4.140918830698878672e+00
-1.477204524102215255e-01 -1.686966325697746294e+00 1.957534853629798510e+00 -1.686966325697746294e+00 -3.207847959626419221e-01 2.025271598670319584e+00 1.957534853629798510e+00 2.025271598670319584e+00 4.462119303701062023e+00
2.348165800505261913e+00 1.321821965067607962e+00 -2.356584811589708561e+00 1.321821965067607962e+00 3.608101519760523956e+00 -5.415217122290539864e-01 -2.356584811589708561e+00 -5.415217122290539864e-01 3.624002717556718434e+00
-2.536312396044630990e+00 -1.478203389824098934e+00 6.847937999026888489e-01 -1.478203389824098934e+00 -9.040044989791423902e+00 3.852711947193443009e+00 6.847937999026888489e-01 3.852711947193443009e+00 -1.280831245660874140e+00
-5.742882303877832051e+00 -3.708831854297792163e-01 -2.265644601953881843e+00 -3.708831854297792163e-01 5.923770061562521061e-01 3.477001944797046828e+00 -2.265644601953881843e+00 3.477001944797046828e+00 -4.419714041532903259e+00
-6.657719222424730576e-01 -2.675446325727605767e+00 -7.273169406342998577e-01 -2.675446325727605767e+00 -4.098271607268897831e+00 2.130735688150426910e+00 -7.273169406342998577e-01 2.130735688150426910e+00 -7.386128090804691126e+00
-2.545618598422427215e-01 -1.434389789029433482e+00 -2.818581922433033071e+00 -1.434389789029433482e+00 3.491451375022305292e+00 -2.501091522112130594e+00 -2.818581922433033071e+00 -2.501091522112130594e+00 4.149654252664170428e+00
1.839916863844289319e+00 2.644400834595276972e+00 2.529500255904083783e+00 2.644400834595276972e+00 8.242751611411012203e-01 1.310065129396992045e+00 2.529500255904083783e+00 1.310065129396992045e+00 2.319235919380151945e+00
-1.563801839295069884e+00 -3.666891902248523127e+00 -1.243072880546695069e+00 -3.666891902248523127e+00 -3.383536652249378385e+00 2.507432147998869265e+00 -1.243072880546695069e+00 2.507432147998869265e+00 -1.070790257994009398e+00
-6.694484925951944554e+00 -7.138787844007618011e-01 4.896055112307871604e-01 -7.138787844007618011e-01 -8.886101790057916006e+00 -5.382149083174769810e-01 4.896055112307871604e-01 -5.382149083174769810e-01 -5.285259108152072116e+00
-2.336260065596600821e+00 -9.505789398125540357e-01 2.144831482685328972e+00 -9.505789398125540357e-01 -3.832815286509714259e+00 2.956127593576864054e+00 2.144831482685328972e+00 2.956127593576864054e+00 -5.011576104490917949e-01
-3.640623595003463109e+00 -1.331605885834131309e+00 -6.775064230273824428e+00 -1.331605885834131309e+00 -6.153136929500608865e-01 6.085387776190251508e+00 -6.775064230273824428e+00 6.085387776190251508e+00 2.222898112365204071e+00
2.440067651053460462e+00 7.917716983029177147e-01 2.737984005706397550e+00 7.917716983029177147e-01 -2.815504671513441082e+00 -1.367167987187150713e+00 2.737984005706397550e+00 -1.367167987187150713e+00 -2.195972166818779492e+00
5.240012352191226325e-02 5.117499299954996417e+00 -1.269459066355207000e+00 5.117499299954996417e+00 -2.561370896980577516e+00 2.758072994572601022e+00 -1.269459066355207000e+00 2.758072994572601022e+00 -2.595195840556408395e+00
-2.116546831591746614e+00 -4.331956553110283714e+00 -8.346422705899665673e-02 -4.331956553110283714e+00 -2.433547105254084464e+00 -1.407848499847958124e+00 -8.346422705899665673e-02 -1.407848499847958124e+00 -4.910349439160166973e+00
-5.190248986009690313e+00 1.523201980388203758e+00 -6.231941851235789365e+00 1.523201980388203758e+00 -5.819739127248594102e+00 2.564038674995545719e+00 -6.231941851235789365e+00 2.564038674995545719e+00 -7.051619748402259136e-01
4.683966760117892036e+00 6.003679319313199869e-01 -1.093298859478439633e+00 6.003679319313199869e-01 -4.286778042633541119e+00 -1.432609202307814966e+00 -1.093298859478439633e+00 -1.432609202307814966e+00 1.519535336651351765e+00
3.394158131229902953e+00 -5.399880500771931935e+00 2.358694217462009135e+00 -5.399880500771931935e+00 3.177894396239752339e+00 -1.060416944410225604e+00 2.358694217462009135e+00 -1.060416944410225604e+00 2.904279638062700619e-01
3.766735045492441092e+00 1.102884247927570005e+00 -5.316893992101661581e+00 1.102884247927570005e+00 6.120192973083209420e-01 -5.770589970423991577e-01 -5.316893992101661581e+00 -5.770589970423991577e-01 2.006088413502221890e+00
-4.237411741086790862e+00 -2.601530262308228370e+00 5.636208408088612121e-01 -2.601530262308228370e+00 -4.529055715337093169e+00 -1.256256667248573100e+00 5.636208408088612121e-01 -1.256256667248573100e+00 -2.538006124877389968e+00
2.052451913748403467e-01 3.644346075954581821e+00 -1.565328056485028707e+00 3.644346075954581821e+00 -3.765618301207105834e+00 5.501218840531215903e+00 -1.565328056485028707e+00 5.501218840531215903e+00 -9.358174416008933960e+00
-1.871409052690752306e+00 1.412600867195552778e+00 -5.185788213003266200e-01 1.412600867195552778e+00 -6.946738847604493117e+00 4.108564267098739897e-01 -5.185788213003266200e-01 4.108564267098739897e-01 8.277184560208860065e-01
-2.721933908672157898e+00 -1.256752998042055536e+00 -2.160279778632471018e-02 -1.256752998042055536e+00 4.745294633787570326e+00 -1.015412149711202305e+00 -2.160279778632471018e-02 -1.015412149711202305e+00 -4.037502105741887171e+00
2.439484462371118934e+00 -5.925134971244597759e-01 8.568840942728999099e-01 -5.925134971244597759e-01 3.139838232649482919e+00 -2.196021799898127735e+00 8.568840942728999099e-01 -2.196021799898127735e+00 6.488600708680495543e+00
1.291440316371562202e+00 -1.175795241490145582e+00 2.033461056762780217e+00 -1.175795241490145582e+00 -2.243837067715245936e+00 1.858405185901511381e+00 2.033461056762780217e+00 1.858405185901511381e+00 -1.943798898920171325e+00
-7.462879443881837105e+00 -1.752308274659713838e+00 8.864157764851071653e-01 -1.752308274659713838e+00 -6.428116597359736950e+00 2.966252741763906187e+00 8.864157764851071653e-01 2.966252741763906187e+00 -7.101606463440862882e+00
-2.068129762687531237e+00 7.923797035249338094e-01 4.311259559022064813e+00 7.923797035249338094e-01 -6.028818474003086791e+00 3.888702133855840959e+00 4.311259559022064813e+00 3.888702133855840959e+00 -3.556483117238346647e+00
5.432452209094218887e+00 -2.479712073182873233e+00 2.391569928395304245e+00 -2.479712073182873233e+00 6.106171628167330612e-01 1.167469292429476946e+00 2.391569928395304245e+00 1.167469292429476946e+00 4.952388657368131941e-01
4.361178028576564003e+00 3.033015437622217925e-01 8.318628181464645666e-01 3.033015437622217925e-01 1.022133089068446843e+01 2.463748834037493118e+00 8.318628181464645666e-01 2.463748834037493118e+00 3.641721726884043164e+00
6.618192678858768829e+00 7.032405542559568623e+00 -5.576090340728047101e-01 7.032405542559568623e+00 2.390626899887687618e+00 1.504266960616847282e+00 -5.576090340728047101e-01 1.504266960616847282e+00 3.081544180954966627e+00
-4.037359410638760693e+00 -6.153341665952920536e+00 1.822812063873899602e+00 -6.153341665952920536e+00 -2.713849920873312005e+00 -9.184601333393194178e-01 1.822812063873899602e+00 -9.184601333393194178e-01 -6.381058234002680685e+00
-5.844357134605324688e+00 2.830282920889382492e+00 -2.712429173976968588e+00 2.830282920889382492e+00 -6.553427714444225671e+00 2.645312842428301003e+00 -2.712429173976968588e+00 2.645312842428301003e+00 -4.105158197028466738e+00
3.173266111590527849e+00 1.820572371168309722e+00 -1.731040500158989914e+00 1.820572371168309722e+00 2.559447615155832967e+00 2.096209677328801924e+00 -1.731040500158989914e+00 2.096209677328801924e+00 2.396210621314365685e+00
4.871883802665275098e+00 -5.176295886577914063e-01 1.436567440385837779e-01 -5.176295886577914063e-01 3.128310949970852572e+00 -5.922963524023111548e-01 1.436567440385837779e-01 -5.922963524023111548e-01 3.567259699591834643e+00
7.432144159495435609e+00 -3.050647589060682119e+00 -2.043393876767348183e-01 -3.050647589060682119e+00 -2.850191989842948193e+00 1.494849083810517287e+00 -2.043393876767348183e-01 1.494849083810517287e+00 -2.417825827370527314e+00
-8.650673482304421569e+00 -1.669265928775177432e+00 1.736704875339608600e+00 -1.669265928775177432e+00 -1.052708306773950930e+01 2.306864874352601458e+00 1.736704875339608600e+00 2.306864874352601458e+00 -8.913865293818341584e+00
-2.079185531112353491e+00 -3.968536941987497180e-01 -4.418169211938189456e+00 -3.968536941987497180e-01 -8.435259713798108905e+00 3.234172104085745847e+00 -4.418169211938189456e+00 3.234172104085745847e+00 -6.876284691469655819e+00
2.524803725770755847e+00 1.166588305271045511e+00 1.337921695181195914e-01 1.166588305271045511e+00 3.986150481021206282e+00 -2.909956421513156144e+00 1.337921695181195914e-01 -2.909956421513156144e+00 9.759321371571306969e+00
5.384711390896123717e+00 -9.261718730430533730e-01 -1.303581808407127118e+00 -9.261718730430533730e-01 3.493579393299361513e+00 -4.122045852276707834e+00 -1.303581808407127118e+00 -4.122045852276707834e+00 8.688140253077429875e+00
7.553782428708153418e-01 -5.154581414363055281e+00 6.424319666789596317e-01 -5.154581414363055281e+00 -1.639194486825058084e+00 1.941248999468655034e+00 6.424319666789596317e-01 1.941248999468655034e+00 4.060463609075370073e+00
-5.625394600925613275e+00 -2.622202439856773371e+00 -4.922732892457554743e-01 -2.622202439856773371e+00 -8.409109285116501908e+00 2.151842155143269153e+00 -4.922732892457554743e-01 2.151842155143269153e+00 -9.836296073505520710e+00
-1.538625459795671446e+00 -2.196766296088351389e+00 -5.210238708717196410e+00 -2.196766296088351389e+00 -1.699963988352068522e+00 3.141972455061457836e+00 -5.210238708717196410e+00 3.141972455061457836e+00 -5.368816397234847493e+00
5.753658886231321823e+00 6.525943396755133907e-01 2.295796697657942254e+00 6.525943396755133907e-01 5.919365125770363889e-01 -4.956762572485696516e+00 2.295796697657942254e+00 -4.956762572485696516e+00 6.986159920876839458e+00
8.700281745112995679e+00 -2.626657008728278342e+00 -1.423172713096729325e+00 -2.626657008728278342e+00 3.534142027396717012e+00 1.387064647870879464e+00 -1.423172713096729325e+00 1.387064647870879464e+00 -6.534505102942705923e-01
1.639994820229548456e+00 3.579550090865444290e+00 1.403182990389222784e+00 3.579550090865444290e+00 -1.045924085240537371e+00 2.887137613282799720e+00 1.403182990389222784e+00 2.887137613282799720e+00 -1.451705529587053178e-01
5.053485035865594277e+00 -2.291819847175164071e+00 -1.269651394537681499e+00 -2.291819847175164071e+00 -2.985783358487441586e+00 6.758480577636590603e+00 -1.269651394537681499e+00 6.758480577636590603e+00 -3.946288914169644890e+00
-5.863230113027495527e+00 4.289898722497562211e+00 2.710629974850594426e+00 4.289898722497562211e+00 -4.500727635299080487e-01 -4.133635176304523817e+00 2.710629974850594426e+00 -4.133635176304523817e+00 9.057416567563310317e-02
3.439268396222541657e+00 6.414579174967502961e-01 2.986664345645873020e+00 6.414579174967502961e-01 1.026722287667684169e-01 2.076648039930674150e-01 2.986664345645873020e+00 2.076648039930674150e-01 -6.293443440683186729e+00
-7.450979913108095598e-01 3.491780194172987350e+00 -2.388585739499490934e+00 3.491780194172987350e+00 2.684988285232306371e+00 -4.500355387203968660e-01 -2.388585739499490934e+00 -4.500355387203968660e-01 2.427076192534056709e+00
6.684341165360146775e+00 1.475442549785352497e+00 6.425572902043139578e+00 1.475442549785352497e+00 4.068131919834674370e+00 -1.283306695493368066e+00 6.425572902043139578e+00 -1.283306695493368066e+00 6.515117181322296780e+00
3.078349051471922948e+00 -3.559188120062825589e-01 -3.325354274983394753e-01 -3.559188120062825589e-01 2.290461141628005404e+00 -4.253486654660703969e+00 -3.325354274983394753e-01 -4.253486654660703969e+00 2.498187986970258567e+00
-2.439807077386882295e+00 -2.228649345434682072e+00 3.738816438359052086e+00 -2.228649345434682072e+00 1.940969813397320998e+00 6.775473703178447327e-01 3.738816438359052086e+00 6.775473703178447327e-01 4.266056232005648319e+00
-7.066509672206733317e-02 -4.810289151194099944e+00 2.230305849457929757e+00 -4.810289151194099944e+00 -2.270998770388574339e+00 3.538491125974606355e+00 2.230305849457929757e+00 3.538491125974606355e+00 -1.772049831970479383e+00
-5.728265362009773654e+00 2.439986997299519622e+00 4.361140803767053598e+00 2.439986997299519622e+00 -2.337835915865908110e+00 1.344566323678942465e+00 4.361140803767053598e+00 1.344566323678942465e+00 2.327202028615546148e+00
3.540792860029382094e+00 -5.003777506898323679e+00 -3.708676750924829069e+00 -5.003777506898323679e+00 2.067608615354374457e+00 -1.802177111134865450e+00 -3.708676750924829069e+00 -1.802177111134865450e+00 -1.004238502722928139e+00
-7.938562876355441666e-01 2.177136413206119503e+00 2.623728657046731971e+00 2.177136413206119503e+00 7.902529260748613282e+00 3.484633030746839832e+00 2.623728657046731971e+00 3.484633030746839832e+00 6.521730789145451013e+00
6.566233048916073400e+00 9.762268335657608986e-01 3.971732071470540415e+00 9.762268335657608986e-01 -2.199738076714327750e+00 -1.773272046549430048e+00 3.971732071470540415e+00 -1.773272046549430048e+00 1.177247009061081817e+00
-2.224138939348910160e+00 5.072500709390891094e-02 -2.145588387145390019e+00 5.072500709390891094e-02 -2.739932104070816332e-01 -8.066926427819846035e-01 -2.145588387145390019e+00 -8.066926427819846035e-01 -5.775925526453928871e-01
5.852360468650229519e-01 4.369677693414951491e+00 6.175409773858134832e-01 4.369677693414951491e+00 2.364643982848879944e-01 -3.692763144858797197e-01 6.175409773858134832e-01 -3.692763144858797197e-01 -2.534091315743796979e+00
1.080996059934992815e+00 3.786383540779428986e-02 -1.434551096537315162e+00 3.786383540779428986e-02 -6.832309783167109352e+00 3.866596801141115147e+00 -1.434551096537315162e+00 3.866596801141115147e+00 -4.222465980068049518e+00
-3.470419357648485637e+00 9.383629981579666435e-01 -4.184577328120581363e+00 9.383629981579666435e-01 9.758111565262194143e-01 2.562797848011839630e+00 -4.184577328120581363e+00 2.562797848011839630e+00 7.210693767713391988e-01
5.651073515353412624e+00 6.622107487992362485e-01 5.691232880681062589e+00 6.622107487992362485e-01 -1.126025671173690235e+00 4.584719213826152107e+00 5.691232880681062589e+00 4.584719213826152107e+00 2.711430308255085020e+00
-5.587195742232217155e-01 6.232016300854811952e+00 2.180250888935222342e+00 6.232016300854811952e+00 -2.379775867915177034e+00 -4.527163454186941216e+00 2.180250888935222342e+00 -4.527163454186941216e+00 6.939144986464212295e+00
2.529134211943890875e+00 -2.274746067879366951e+00 -2.583997377028459663e+00 -2.274746067879366951e+00 6.735078580723892649e+00 1.358389136277429410e+00 -2.583997377028459663e+00 1.358389136277429410e+00 2.425177727248986503e+00
-1.133780839821854070e+00 4.749922918436793928e+00 2.664080350556857102e+00 4.749922918436793928e+00 -1.193700374865025671e+00 -5.258953576097501248e+00 2.664080350556857102e+00 -5.258953576097501248e+00 -1.036425554680266536e+00
-7.374439500618178656e+00 -9.399698691018660845e-01 5.331523342239556928e-01 -9.399698691018660845e-01 -1.045384325502625167e+00 3.371029116253619673e+00 5.331523342239556928e-01 3.371029116253619673e+00 -2.187826137670748405e+00
1.927258675227367712e+00 -2.959905911742248819e+00 -1.029675455888904967e+00 -2.959905911742248819e+00 -2.441941299798856768e+00 1.503299115569556310e+00 -1.029675455888904967e+00 1.503299115569556310e+00 -3.226280444469374675e+00
-4.739226989837246329e+00 3.383902696209571737e+00 -1.346241440106945575e+00 3.383902696209571737e+00 9.462627231497320324e+00 -3.557885251729934750e-01 -1.346241440106945575e+00 -3.557885251729934750e-01 5.822766745088836515e-01
5.057827930308565811e+00 9.546178316445177447e-01 -5.183703623670639971e+00 9.546178316445177447e-01 2.633915846582959741e+00 -3.263803052456649922e+00 -5.183703623670639971e+00 -3.263803052456649922e+00 3.538770312045941058e+00
1.779302465690241863e+00 4.216119150046392150e+00 -3.383983349963512133e+00 4.216119150046392150e+00 8.242906714783975630e+00 5.495070542826952398e+00 -3.383983349963512133e+00 5.495070542826952398e+00 4.988627009427271553e+00
-6.403417936249065967e+00 4.726241735452761716e+00 -3.606091380046919648e-01 4.726241735452761716e+00 -3.875617613312659415e+00 -1.428998395785229913e+00 -3.606091380046919648e-01 -1.428998395785229913e+00 -4.770421380207620077e-01
-3.563934283275501880e+00 6.298872058736900703e-01 -1.502920663339526008e+00 6.298872058736900703e-01 -3.639655749956172137e+00 -1.548173623435290525e+00 -1.502920663339526008e+00 -1.548173623435290525e+00 -2.552021265658351190e+00
-3.394406296626644171e+00 -2.470176317813091327e+00 8.499354631641452551e-01 -2.470176317813091327e+00 -2.005288080097731296e+00 -1.696235303266031336e+00 8.499354631641452551e-01 -1.696235303266031336e+00 -1.037585727910031785e+00
7.840866363793335125e+00 1.170900179039424449e+00 7.174213454392430744e-01 1.170900179039424449e+00 5.327006732018867652e+00 2.257064283361553958e-02 7.174213454392430744e-01 2.257064283361553958e-02 7.856662091295913974e+00
2.227526397014428117e+00 -2.188688512424424193e+00 -2.335304628819147243e+00 -2.188688512424424193e+00 -1.890728728827057559e+00 2.193564962470389457e+00 -2.335304628819147243e+00 2.193564962470389457e+00 1.753226486627656344e+00
2.063644173141433225e+00 1.771019945574003218e+00 -7.314749518566992847e+00 1.771019945574003218e+00 -1.331488007270679175e+00 3.506235828533164067e+00 -7.314749518566992847e+00 3.506235828533164067e+00 -6.106618325881464138e+00
-6.214582681733739733e+00 -1.204160546337669002e+00 -2.525746754278372475e+00 -1.204160546337669002e+00 -3.831375927208614751e+00 6.204718107213275324e+00 -2.525746754278372475e+00 6.204718107213275324e+00 6.124101578081884989e-02
-3.332613112838075931e-01 2.896431407390758661e+00 6.739799927396894930e+00 2.896431407390758661e+00 1.567524320246188596e+00 -2.283617980812866211e-01 6.739799927396894930e+00 -2.283617980812866211e-01 -2.008328106207811548e+00
7.973560401430874300e+00 -4.777010171491100188e+00 -7.251219177001236638e+00 -4.777010171491100188e+00 4.377265350420314616e-01 4.658821401293085529e+00 -7.251219177001236638e+00 4.658821401293085529e+00 6.141770954329860643e+00