2.066409999999999858e+00 1.218630000000000102e+00 4.579500000000000237e-01 1.939440000000000053e+00 2.976449999999999818e+00 4.564420000000000144e+00 2.882849999999999913e+00 4.815269999999999939e+00 1.992250000000000076e+00 3.584020000000000206e+00 9.541079999999999117e+00 3.205740000000000034e+00 1.780100000000000016e-01 2.456809999999999938e+00 2.064939999999999998e+00 5.653870000000000395e+00 2.002870000000000150e+00 3.488999999999999879e+00 1.229670000000000041e+00 6.405059999999999754e+00 4.480260000000000353e+00 2.895030000000000214e+00 5.903739999999999988e+00 9.152300000000000324e+00 1.529479999999999951e+00 9.678150000000000475e+00 8.262019999999999698e+00 1.644660000000000011e+00 4.463599999999999568e+00 6.779840000000000089e+00 4.730000000000000177e-02 7.726119999999999877e+00 7.915219999999999700e+00 4.359289999999999665e+00 8.242660000000000764e+00 6.250639999999999752e+00 8.392920000000000158e+00 2.919830000000000148e+00 5.039900000000000269e+00 7.825929999999999609e+00 2.012640000000000207e+00 9.718790000000000262e+00 7.942940000000000111e+00 4.567169999999999952e+00 6.804109999999999658e+00 8.114480000000000359e+00 1.817300000000000026e-01 7.538739999999999775e+00 5.427170000000000272e+00 1.942059999999999897e+00 7.160129999999999661e+00 9.711959999999999482e+00 2.194630000000000081e+00 7.866460000000000008e+00 7.983419999999999739e+00 8.068569999999999354e+00 3.174100000000000255e-01 6.883119999999999905e+00 7.602400000000000269e+00 4.739630000000000010e+00 6.389190000000000147e+00 9.417669999999999320e+00 2.863239999999999785e+00 8.598750000000000782e+00 5.730339999999999989e+00 2.931529999999999969e+00 5.805500000000000327e+00 6.238360000000000127e+00 1.397529999999999939e+00 9.575649999999999551e+00 8.841440000000000410e+00 2.184969999999999857e+00 4.993430000000000035e+00 1.643600000000000061e-01 9.845860000000000056e+00 4.899790000000000312e+00 4.954880000000000173e+00 5.011000000000000121e+00 9.848969999999999558e+00 7.646000000000000019e-02 4.744019999999999904e+00 9.758250000000000313e+00 4.918099999999999916e+00 1.357599999999999918e-01 1.278089999999999948e+00 3.769000000000000128e+00 8.994070000000000675e+00 8.501310000000000144e+00 3.818340000000000067e+00 1.204949999999999966e+00 3.721909999999999830e+00 1.331790000000000029e+00 8.713260000000000005e+00 6.027420000000000222e+00 1.319779999999999953e+00 1.306759999999999922e+00 1.444239999999999968e+00 8.834989999999999455e+00 3.648499999999999854e+00 8.783970000000000056e+00 8.690810000000000812e+00 5.957460000000000200e+00 3.574580000000000091e+00 6.170420000000000016e+00 3.992879999999999985e+00 5.906419999999999781e+00 6.044550000000000090e+00 6.449670000000000236e+00 6.230579999999999785e+00 3.992350000000000065e+00 3.889940000000000175e+00 3.642500000000000071e+00 3.571279999999999788e+00 5.990319999999999645e+00 8.649800000000000821e+00 1.042259999999999964e+00 3.423020000000000174e+00 1.038689999999999891e+00 1.277539999999999898e+00 6.031489999999999796e+00 6.035449999999999982e+00 8.896369999999999223e+00 8.506439999999999557e+00 3.834049999999999958e+00 8.616350000000000620e+00 1.076200000000000045e+00 8.532000000000000028e+00 6.081699999999999662e+00 8.685399999999999565e+00 1.059600000000000097e+00 6.147899999999999920e+00 1.193650000000000100e+00 7.732000000000000206e+00 2.564760000000000151e+00 7.274619999999999642e+00 7.468300000000000161e+00 7.441740000000000244e+00 2.387669999999999959e+00 9.446859999999999147e+00 9.178000000000000047e-02 9.550959999999999894e+00 9.790340000000000487e+00 4.708719999999999573e+00 4.991509999999999891e+00 5.161959999999999660e+00 4.890000000000000249e-03 4.743149999999999977e+00 4.531119999999999592e+00 4.628650000000000375e+00 4.299899999999999833e-01 2.781000000000000139e+00 2.194630000000000081e+00 2.470530000000000115e+00 2.384170000000000122e+00 7.527260000000000062e+00 7.440889999999999560e+00
2.099629999999999885e+00 1.803299999999999903e-01 3.448200000000000154e-01 1.863909999999999956e+00 3.419690000000000119e+00 4.769129999999999647e+00 3.124550000000000161e+00 4.706590000000000273e+00 2.389479999999999826e+00 3.186170000000000169e+00 9.842029999999999390e+00 3.552449999999999886e+00 2.726799999999999780e-01 2.535200000000000120e+00 2.483140000000000125e+00 4.763490000000000002e+00 2.453110000000000124e+00 3.785660000000000025e+00 1.241449999999999942e+00 6.657479999999999620e+00 5.201319999999999943e+00 3.003719999999999946e+00 6.231169999999999654e+00 9.485789999999999722e+00 1.747770000000000046e+00 9.649729999999999919e+00 7.875379999999999825e+00 1.186379999999999990e+00 4.954579999999999984e+00 7.067050000000000054e+00 9.849339999999999762e+00 7.858530000000000015e+00 8.095710000000000406e+00 4.364410000000000345e+00 8.506220000000000780e+00 6.418029999999999902e+00 8.196300000000000807e+00 3.077350000000000030e+00 4.972649999999999793e+00 7.613819999999999588e+00 2.356689999999999952e+00 9.580260000000000886e+00 7.974090000000000344e+00 4.912270000000000358e+00 6.863599999999999923e+00 7.856989999999999696e+00 2.446800000000000086e-01 7.492440000000000211e+00 5.188659999999999606e+00 2.185729999999999951e+00 7.295989999999999753e+00 9.790739999999999554e+00 2.150329999999999853e+00 7.818780000000000285e+00 7.713930000000000398e+00 8.212740000000000151e+00 1.053899999999999976e-01 6.862910000000000288e+00 7.451909999999999812e+00 4.719369999999999621e+00 5.787700000000000067e+00 8.827909999999999258e+00 2.459039999999999893e+00 8.928850000000000620e+00 5.754649999999999821e+00 3.136600000000000055e+00 6.472240000000000215e+00 5.379360000000000142e+00 1.892370000000000108e+00 9.573620000000000019e+00 8.959759999999999280e+00 1.796559999999999935e+00 4.843639999999999723e+00 9.824059999999999349e+00 9.664149999999999352e+00 4.937090000000000423e+00 5.211240000000000094e+00 5.111489999999999867e+00 1.047399999999999998e-01 9.686970000000000525e+00 4.741139999999999688e+00 9.741600000000000037e+00 5.122639999999999638e+00 1.325800000000000034e-01 1.222439999999999971e+00 3.887319999999999887e+00 9.063879999999999271e+00 8.510999999999999233e+00 3.938769999999999882e+00 1.408430000000000071e+00 3.538229999999999986e+00 1.302759999999999918e+00 8.650669999999999860e+00 6.103699999999999903e+00 1.056699999999999973e+00 1.018310000000000048e+00 1.218350000000000044e+00 8.568860000000000809e+00 3.462270000000000181e+00 8.818490000000000606e+00 8.391199999999999548e+00 5.940479999999999983e+00 3.705000000000000071e+00 6.349230000000000373e+00 3.897380000000000067e+00 5.897610000000000241e+00 6.331940000000000346e+00 6.557389999999999830e+00 6.425749999999999851e+00 4.241629999999999789e+00 3.873759999999999870e+00 3.869800000000000129e+00 3.672029999999999905e+00 5.873140000000000249e+00 8.683350000000000790e+00 1.120670000000000055e+00 3.645049999999999901e+00 1.234450000000000047e+00 1.091250000000000053e+00 5.952449999999999797e+00 5.907890000000000086e+00 8.592599999999999127e+00 8.353460000000000107e+00 3.754820000000000046e+00 8.626870000000000260e+00 1.069669999999999899e+00 8.599140000000000228e+00 6.052500000000000213e+00 8.645179999999999865e+00 1.012760000000000105e+00 6.279340000000000366e+00 1.411529999999999951e+00 7.439779999999999838e+00 2.565500000000000114e+00 7.290779999999999816e+00 7.668050000000000033e+00 7.505359999999999587e+00 2.236279999999999824e+00 3.371999999999999997e-02 9.801830000000000709e+00 9.423320000000000363e+00 1.421300000000000063e-01 4.658909999999999663e+00 4.988229999999999720e+00 5.248260000000000147e+00 9.808320000000000149e+00 4.636969999999999814e+00 4.641619999999999635e+00 4.731900000000000439e+00 5.787700000000000067e-01 2.559079999999999799e+00 2.290550000000000086e+00 2.702379999999999782e+00 2.078450000000000131e+00 7.286539999999999573e+00 7.226779999999999760e+00
1.629180000000000073e+00 9.543099999999999916e-01 4.766400000000000081e-01 1.781730000000000036e+00 3.347420000000000062e+00 5.080580000000000318e+00 3.123889999999999834e+00 4.750740000000000407e+00 2.186069999999999958e+00 2.968440000000000190e+00 2.096600000000000130e-01 3.272429999999999950e+00 2.336900000000000088e-01 2.999649999999999928e+00 3.043680000000000163e+00 5.000630000000000130e+00 2.210389999999999855e+00 4.475690000000000168e+00 1.741649999999999920e+00 6.412099999999999689e+00 4.953809999999999825e+00 3.633449999999999847e+00 6.705759999999999721e+00 9.445050000000000168e+00 1.957119999999999971e+00 9.576439999999999841e+00 7.922570000000000334e+00 9.258600000000000163e-01 5.047990000000000421e+00 7.306560000000000166e+00 2.959999999999999958e-03 7.821900000000000297e+00 8.164469999999999672e+00 4.285940000000000083e+00 8.066369999999999152e+00 6.125300000000000189e+00 8.284689999999999444e+00 2.745830000000000215e+00 5.208039999999999559e+00 7.554369999999999585e+00 2.445399999999999796e+00 9.593519999999999825e+00 8.120599999999999596e+00 4.726820000000000022e+00 6.721119999999999983e+00 7.658890000000000420e+00 1.580300000000000038e-01 7.719269999999999854e+00 5.241600000000000037e+00 2.762360000000000149e+00 7.883239999999999803e+00 2.415000000000000133e-02 1.710760000000000058e+00 8.047100000000000364e+00 7.572790000000000354e+00 8.134980000000000544e+00 6.357000000000000151e-02 7.019800000000000040e+00 7.723489999999999966e+00 4.696769999999999889e+00 5.755060000000000286e+00 8.869139999999999802e+00 2.530040000000000067e+00 9.252679999999999794e+00 6.145260000000000389e+00 3.016150000000000109e+00 6.429269999999999818e+00 5.354339999999999655e+00 1.751579999999999915e+00 9.084220000000000184e+00 9.209049999999999514e+00 1.871040000000000036e+00 4.812759999999999927e+00 3.490000000000000047e-03 9.767830000000000013e+00 5.037899999999999601e+00 5.081019999999999648e+00 4.946430000000000327e+00 4.945000000000000090e-02 9.785349999999999326e+00 4.752779999999999561e+00 2.710999999999999868e-02 4.904449999999999754e+00 1.632500000000000062e-01 1.247640000000000082e+00 3.537139999999999951e+00 9.069530000000000314e+00 8.556929999999999481e+00 3.934779999999999944e+00 1.354500000000000037e+00 3.594450000000000145e+00 1.308419999999999916e+00 8.784520000000000550e+00 6.167069999999999830e+00 9.919200000000000239e-01 1.063090000000000090e+00 1.057889999999999997e+00 8.629699999999999704e+00 3.356040000000000134e+00 8.793250000000000455e+00 8.624200000000000088e+00 6.079200000000000159e+00 3.814119999999999955e+00 6.371389999999999887e+00 3.918769999999999865e+00 6.117160000000000153e+00 6.188889999999999780e+00 6.222749999999999559e+00 6.305760000000000254e+00 4.066819999999999879e+00 3.718249999999999833e+00 3.807659999999999823e+00 3.701220000000000176e+00 6.021419999999999995e+00 8.604480000000000572e+00 1.045360000000000067e+00 3.574710000000000054e+00 1.419240000000000057e+00 1.072270000000000056e+00 5.852059999999999818e+00 5.793120000000000047e+00 8.629020000000000579e+00 8.403909999999999769e+00 3.596480000000000121e+00 8.800150000000000361e+00 1.222690000000000055e+00 8.670310000000000628e+00 5.998780000000000001e+00 8.669600000000000861e+00 1.196139999999999981e+00 6.216599999999999682e+00 1.177349999999999897e+00 7.593250000000000277e+00 2.502559999999999896e+00 7.346709999999999852e+00 7.447059999999999569e+00 7.448059999999999903e+00 2.351820000000000022e+00 9.556609999999999161e+00 9.777910000000000323e+00 9.393449999999999633e+00 9.798640000000000683e+00 4.705140000000000100e+00 5.005550000000000388e+00 5.003580000000000361e+00 4.179999999999999688e-03 4.588969999999999771e+00 4.620070000000000121e+00 4.895979999999999777e+00 2.712999999999999856e-01 2.532319999999999904e+00 2.457349999999999923e+00 2.559369999999999923e+00 2.493539999999999868e+00 7.261099999999999888e+00 7.518460000000000143e+00
1.715780000000000083e+00 1.559669999999999890e+00 4.837400000000000033e-01 1.985309999999999908e+00 3.317940000000000111e+00 5.106259999999999799e+00 3.101300000000000168e+00 4.489499999999999602e+00 1.865629999999999900e+00 2.955540000000000056e+00 5.627999999999999670e-02 3.360409999999999897e+00 1.278299999999999992e-01 3.140260000000000051e+00 3.122440000000000104e+00 5.151329999999999742e+00 1.996110000000000051e+00 5.112829999999999764e+00 1.746830000000000105e+00 6.454189999999999650e+00 4.787149999999999572e+00 3.740340000000000220e+00 6.865359999999999907e+00 9.301859999999999573e+00 1.964469999999999938e+00 9.756510000000000460e+00 8.253690000000000637e+00 1.228650000000000020e+00 5.067999999999999616e+00 7.125519999999999854e+00 9.314000000000000057e-02 8.007009999999999295e+00 8.025909999999999656e+00 4.325840000000000352e+00 7.970600000000000129e+00 6.426969999999999850e+00 8.084830000000000183e+00 2.813390000000000057e+00 5.132690000000000197e+00 8.064299999999999358e+00 1.914870000000000072e+00 9.727869999999999351e+00 8.128890000000000171e+00 4.719630000000000436e+00 6.837419999999999831e+00 7.358559999999999768e+00 2.208100000000000063e-01 7.623879999999999768e+00 5.417390000000000150e+00 3.389269999999999783e+00 8.197269999999999612e+00 9.591730000000000089e+00 1.912919999999999954e+00 7.489279999999999937e+00 7.840840000000000032e+00 7.931099999999999817e+00 2.083000000000000129e-02 7.180030000000000356e+00 7.541260000000000296e+00 4.438670000000000115e+00 5.574130000000000251e+00 8.837279999999999802e+00 2.417380000000000084e+00 9.070759999999999934e+00 5.841350000000000264e+00 2.874979999999999869e+00 6.548289999999999722e+00 5.362230000000000274e+00 1.609399999999999942e+00 9.141890000000000072e+00 9.228759999999999408e+00 1.972750000000000004e+00 4.806049999999999933e+00 1.775700000000000056e-01 9.837979999999999947e+00 5.005309999999999704e+00 4.963610000000000078e+00 4.937269999999999825e+00 1.629999999999999939e-03 9.847690000000000055e+00 4.930790000000000006e+00 9.574000000000000565e-02 4.843420000000000059e+00 9.951000000000000123e-02 1.186909999999999910e+00 3.474380000000000024e+00 8.825789999999999580e+00 8.559739999999999682e+00 3.880860000000000198e+00 1.290470000000000006e+00 3.785449999999999982e+00 1.516960000000000086e+00 8.704539999999999722e+00 6.163170000000000037e+00 1.063430000000000097e+00 1.159000000000000030e+00 1.000539999999999985e+00 8.632600000000000051e+00 3.613449999999999829e+00 8.693170000000000286e+00 8.631899999999999906e+00 6.109589999999999854e+00 3.859300000000000175e+00 6.167410000000000281e+00 3.776339999999999808e+00 6.168549999999999756e+00 6.172970000000000290e+00 6.073100000000000165e+00 6.106359999999999566e+00 3.803399999999999892e+00 3.696660000000000057e+00 3.960379999999999789e+00 3.784600000000000186e+00 6.253099999999999881e+00 8.701359999999999317e+00 1.159010000000000096e+00 3.685799999999999965e+00 1.434029999999999916e+00 1.068550000000000111e+00 5.963230000000000253e+00 5.665610000000000035e+00 8.578620000000000800e+00 8.598169999999999646e+00 3.415999999999999925e+00 8.986629999999999896e+00 1.107839999999999936e+00 8.921260000000000190e+00 6.011180000000000412e+00 8.588150000000000617e+00 1.262259999999999938e+00 6.031530000000000058e+00 1.224830000000000085e+00 7.351740000000000386e+00 2.518429999999999946e+00 7.434300000000000352e+00 7.491909999999999847e+00 7.426459999999999617e+00 2.199570000000000025e+00 9.749499999999999389e+00 3.382999999999999896e-02 9.395429999999999282e+00 9.618999999999999773e-02 4.696320000000000050e+00 5.014109999999999623e+00 4.774619999999999642e+00 9.470100000000000406e+00 4.692239999999999966e+00 4.875200000000000422e+00 5.012360000000000149e+00 4.954000000000000070e-02 2.329499999999999904e+00 2.509329999999999838e+00 2.699800000000000200e+00 2.230690000000000062e+00 7.421640000000000015e+00 7.274930000000000341e+00
1.638330000000000064e+00 1.433910000000000018e+00 3.543600000000000083e-01 1.828019999999999978e+00 3.151829999999999909e+00 4.928480000000000416e+00 3.116789999999999949e+00 4.327820000000000000e+00 1.768329999999999957e+00 3.050269999999999815e+00 1.148499999999999938e-01 3.421050000000000146e+00 1.270000000000000018e-01 3.120870000000000033e+00 2.911529999999999951e+00 5.431510000000000282e+00 1.887399999999999967e+00 5.761800000000000033e+00 1.862190000000000012e+00 6.498479999999999812e+00 4.848659999999999748e+00 3.531340000000000146e+00 6.858780000000000321e+00 9.445169999999999177e+00 2.342890000000000139e+00 9.724600000000000577e+00 7.825029999999999930e+00 1.148419999999999996e+00 5.081439999999999735e+00 7.002609999999999779e+00 1.534300000000000108e-01 8.182930000000000703e+00 8.065279999999999561e+00 4.546140000000000292e+00 8.121600000000000819e+00 6.315920000000000201e+00 8.120799999999999130e+00 2.997230000000000061e+00 5.013169999999999682e+00 7.933729999999999727e+00 1.850130000000000052e+00 5.251999999999999724e-02 8.094250000000000611e+00 4.791970000000000063e+00 6.776379999999999626e+00 7.765249999999999986e+00 1.797300000000000009e-01 7.821069999999999744e+00 5.303259999999999863e+00 3.764130000000000198e+00 8.086309999999999221e+00 9.649839999999999307e+00 2.139590000000000103e+00 7.568310000000000315e+00 7.777829999999999799e+00 7.996109999999999829e+00 1.406499999999999972e-01 7.077930000000000277e+00 7.652720000000000411e+00 4.574869999999999770e+00 5.479599999999999582e+00 8.689819999999999212e+00 2.365439999999999987e+00 9.511870000000000047e+00 6.323730000000000295e+00 3.087590000000000057e+00 6.617429999999999701e+00 5.219540000000000290e+00 1.852479999999999905e+00 9.250659999999999883e+00 9.288569999999999993e+00 2.082819999999999894e+00 4.828759999999999941e+00 1.593299999999999994e-01 9.776619999999999422e+00 4.951509999999999856e+00 4.850799999999999557e+00 4.938769999999999882e+00 9.775719999999999743e+00 9.743420000000000414e+00 4.837790000000000035e+00 4.997999999999999665e-02 4.916479999999999961e+00 9.490999999999999437e-02 1.306519999999999904e+00 3.717060000000000031e+00 8.871169999999999334e+00 8.506259999999999266e+00 3.835119999999999862e+00 1.187259999999999982e+00 3.785960000000000214e+00 1.524790000000000090e+00 8.617250000000000298e+00 6.083059999999999690e+00 9.973899999999999988e-01 1.235510000000000108e+00 1.099520000000000053e+00 8.567790000000000461e+00 3.661610000000000031e+00 8.642480000000000828e+00 8.549569999999999226e+00 6.043000000000000149e+00 3.777260000000000062e+00 5.957799999999999763e+00 3.711829999999999963e+00 6.127550000000000274e+00 6.100959999999999717e+00 6.045130000000000337e+00 6.056530000000000413e+00 3.496550000000000047e+00 3.897089999999999943e+00 3.773680000000000145e+00 3.803399999999999892e+00 6.246739999999999959e+00 8.640710000000000335e+00 1.121250000000000080e+00 3.632670000000000066e+00 1.209889999999999910e+00 1.009370000000000100e+00 5.971009999999999707e+00 5.783780000000000143e+00 8.664630000000000720e+00 8.518549999999999400e+00 3.442959999999999798e+00 8.981730000000000658e+00 1.058540000000000036e+00 8.869350000000000733e+00 6.153419999999999668e+00 8.706480000000000885e+00 1.318740000000000023e+00 5.962130000000000152e+00 1.337069999999999981e+00 7.389280000000000292e+00 2.614669999999999828e+00 7.269669999999999632e+00 7.562389999999999723e+00 7.370140000000000136e+00 2.341060000000000141e+00 9.472490000000000521e+00 1.379199999999999871e-01 9.527710000000000790e+00 7.877000000000000668e-02 4.721619999999999706e+00 4.906950000000000145e+00 5.048280000000000101e+00 9.672380000000000422e+00 4.668730000000000047e+00 4.857739999999999725e+00 5.167300000000000004e+00 1.983900000000000108e-01 2.317260000000000097e+00 2.385920000000000041e+00 2.594720000000000137e+00 2.465700000000000003e+00 7.451290000000000191e+00 7.207910000000000039e+00
1.593350000000000044e+00 1.285360000000000058e+00 3.874199999999999866e-01 1.878759999999999986e+00 3.206179999999999808e+00 4.806060000000000443e+00 3.151510000000000034e+00 4.330960000000000143e+00 1.837409999999999988e+00 3.125129999999999963e+00 7.742000000000000270e-02 3.226700000000000124e+00 9.805809999999999249e+00 2.958979999999999944e+00 3.017560000000000020e+00 5.492180000000000284e+00 1.919510000000000050e+00 6.083000000000000185e+00 1.842540000000000067e+00 6.463930000000000398e+00 4.753210000000000157e+00 3.222710000000000186e+00 6.537180000000000213e+00 9.727890000000000370e+00 2.391960000000000086e+00 9.812709999999999155e+00 7.549220000000000041e+00 1.264590000000000103e+00 4.956080000000000041e+00 7.126710000000000100e+00 2.659199999999999897e-01 8.039279999999999760e+00 8.084640000000000271e+00 4.512880000000000003e+00 7.875910000000000188e+00 6.515539999999999665e+00 8.191300000000000026e+00 2.909489999999999910e+00 5.170049999999999812e+00 7.827919999999999767e+00 1.953270000000000062e+00 9.811669999999999447e+00 8.078680000000000305e+00 4.864740000000000286e+00 6.594759999999999955e+00 7.751669999999999838e+00 1.526299999999999879e-01 7.611419999999999852e+00 5.215840000000000032e+00 3.472729999999999873e+00 8.251950000000000784e+00 9.675100000000000477e+00 1.830819999999999892e+00 7.779250000000000220e+00 7.567940000000000111e+00 7.520909999999999762e+00 4.211000000000000160e-02 7.049479999999999968e+00 7.900909999999999656e+00 4.574720000000000120e+00 5.696049999999999613e+00 8.892749999999999488e+00 2.525780000000000136e+00 9.372820000000000817e+00 6.192199999999999704e+00 3.155569999999999986e+00 6.380270000000000330e+00 5.283769999999999634e+00 2.143060000000000187e+00 9.167939999999999756e+00 9.307919999999999305e+00 1.861799999999999899e+00 4.872169999999999668e+00 1.773399999999999976e-01 9.691369999999999152e+00 4.962279999999999802e+00 4.899490000000000123e+00 4.940900000000000070e+00 4.206000000000000016e-02 9.791230000000000544e+00 4.798729999999999940e+00 5.740000000000000310e-03 4.943870000000000431e+00 1.166100000000000053e-01 1.286680000000000046e+00 3.645840000000000192e+00 9.025819999999999510e+00 8.540100000000000691e+00 3.930260000000000087e+00 1.303670000000000107e+00 3.714719999999999800e+00 1.501789999999999958e+00 8.616139999999999688e+00 6.052380000000000315e+00 1.135089999999999932e+00 1.210409999999999986e+00 1.161759999999999904e+00 8.635680000000000689e+00 3.477300000000000058e+00 8.861459999999999226e+00 8.550900000000000389e+00 6.029410000000000380e+00 3.876230000000000064e+00 6.070140000000000313e+00 3.655629999999999935e+00 6.086800000000000210e+00 6.036380000000000301e+00 6.238220000000000098e+00 6.031010000000000204e+00 3.478149999999999853e+00 3.926909999999999901e+00 3.690469999999999917e+00 3.812889999999999890e+00 6.238480000000000025e+00 8.549950000000000827e+00 1.014839999999999964e+00 3.689299999999999802e+00 1.182039999999999980e+00 1.213379999999999903e+00 5.929689999999999905e+00 5.858439999999999870e+00 8.732509999999999550e+00 8.448539999999999495e+00 3.541589999999999794e+00 8.882960000000000633e+00 9.558699999999999974e-01 8.901669999999999305e+00 6.050690000000000346e+00 8.470029999999999504e+00 1.150169999999999915e+00 6.225200000000000067e+00 1.190849999999999964e+00 7.402230000000000310e+00 2.546899999999999942e+00 7.338119999999999976e+00 7.436679999999999957e+00 7.462250000000000050e+00 2.300839999999999996e+00 9.552970000000000184e+00 1.501200000000000034e-01 9.320479999999999876e+00 1.834500000000000020e-01 4.756140000000000256e+00 5.081680000000000419e+00 5.134949999999999903e+00 9.630449999999999733e+00 4.757130000000000081e+00 4.842570000000000263e+00 5.060469999999999580e+00 2.947600000000000220e-01 2.190659999999999830e+00 2.368069999999999897e+00 2.484070000000000000e+00 2.424009999999999998e+00 7.324629999999999974e+00 7.387579999999999814e+00
1.858139999999999903e+00 1.347120000000000095e+00 5.597999999999999643e-01 2.123920000000000030e+00 3.479049999999999976e+00 4.753389999999999560e+00 3.037329999999999863e+00 4.712290000000000312e+00 1.995260000000000034e+00 2.947970000000000201e+00 3.633899999999999908e-01 3.452620000000000022e+00 9.757659999999999556e+00 2.957500000000000018e+00 2.931659999999999933e+00 5.612330000000000041e+00 1.913580000000000059e+00 5.742829999999999657e+00 9.643100000000000005e-01 6.826229999999999798e+00 4.953529999999999767e+00 3.241629999999999789e+00 6.741740000000000066e+00 9.702469999999999928e+00 1.695359999999999978e+00 4.837999999999999939e-02 7.956909999999999705e+00 1.673540000000000028e+00 4.868380000000000152e+00 7.036830000000000140e+00 1.499000000000000055e-01 7.925690000000000346e+00 8.486209999999999809e+00 4.483229999999999826e+00 7.888150000000000439e+00 6.725159999999999805e+00 8.031570000000000320e+00 2.746690000000000076e+00 5.130200000000000315e+00 8.039740000000000109e+00 1.833409999999999984e+00 9.658490000000000464e+00 8.153549999999999187e+00 4.808659999999999712e+00 6.607009999999999827e+00 7.896349999999999980e+00 7.958999999999999408e-02 7.703470000000000262e+00 5.411299999999999777e+00 3.152870000000000061e+00 8.520720000000000738e+00 9.719219999999999970e+00 1.988949999999999996e+00 7.473779999999999646e+00 7.018500000000000405e+00 7.088720000000000354e+00 2.766000000000000056e-02 7.336129999999999818e+00 7.647789999999999644e+00 4.612700000000000244e+00 5.793459999999999610e+00 9.065749999999999531e+00 2.707269999999999843e+00 9.060430000000000206e+00 5.820009999999999906e+00 2.872959999999999958e+00 6.021099999999999675e+00 5.310060000000000002e+00 2.080789999999999917e+00 9.285080000000000666e+00 9.117160000000000153e+00 1.825809999999999933e+00 4.879809999999999981e+00 1.721399999999999875e-01 9.718159999999999243e+00 5.005709999999999660e+00 4.929140000000000299e+00 5.070420000000000371e+00 1.227700000000000041e-01 9.807130000000000791e+00 4.745379999999999932e+00 9.822060000000000457e+00 4.948699999999999655e+00 9.470000000000000639e-02 1.228709999999999969e+00 3.663590000000000124e+00 8.918649999999999523e+00 8.423619999999999663e+00 3.921839999999999993e+00 1.222059999999999924e+00 3.685999999999999943e+00 1.276510000000000034e+00 8.466509999999999536e+00 6.128899999999999793e+00 1.303949999999999942e+00 1.043930000000000025e+00 1.150879999999999903e+00 8.754759999999999209e+00 3.348510000000000097e+00 9.010020000000000806e+00 8.474859999999999616e+00 6.018779999999999575e+00 3.725969999999999782e+00 6.061119999999999841e+00 3.921100000000000030e+00 6.242230000000000167e+00 6.204240000000000421e+00 6.220080000000000275e+00 6.187759999999999927e+00 3.690679999999999961e+00 3.860780000000000101e+00 3.964609999999999967e+00 3.770989999999999842e+00 6.403830000000000133e+00 8.610219999999999985e+00 1.003039999999999932e+00 3.660950000000000149e+00 1.419000000000000039e+00 1.146509999999999918e+00 5.807780000000000165e+00 5.927179999999999893e+00 8.674319999999999808e+00 8.484819999999999141e+00 3.717379999999999907e+00 8.980760000000000076e+00 1.157990000000000075e+00 8.719820000000000348e+00 6.019940000000000069e+00 8.600780000000000314e+00 1.153710000000000013e+00 6.195789999999999687e+00 1.240390000000000104e+00 7.350600000000000023e+00 2.408459999999999823e+00 7.358410000000000117e+00 7.448610000000000397e+00 7.306390000000000384e+00 2.291220000000000034e+00 1.375999999999999966e-02 2.223700000000000121e-01 9.432290000000000063e+00 9.826990000000000336e+00 4.560459999999999958e+00 4.802789999999999893e+00 4.693909999999999805e+00 9.500420000000000087e+00 4.717660000000000409e+00 4.627480000000000260e+00 5.096759999999999735e+00 2.274100000000000010e-01 2.343739999999999934e+00 2.600610000000000088e+00 2.575579999999999981e+00 2.286830000000000140e+00 7.351820000000000022e+00 7.327799999999999869e+00