-2.209658227799999963e+02
-2.220674554699999987e+02
-2.235239601099999902e+02
-2.244902746600000114e+02
-2.245585427999999979e+02
-2.244825332800000126e+02
-2.243411001599999963e+02
-2.241922498000000132e+02
-2.240862823999999875e+02
-2.242700499100000116e+02
-2.243922111500000085e+02
-2.246707918300000131e+02
-2.245025223300000050e+02
-2.245534524200000135e+02
-2.243402576999999951e+02
-2.243691013199999986e+02
-2.244046294400000079e+02
-2.245715312899999958e+02
-2.244047318400000108e+02
-2.244372063200000014e+02
-2.242217502599999932e+02
-2.241402334299999950e+02
-2.243916414100000054e+02
-2.244352040999999929e+02
-2.244209805300000085e+02
-2.241413598400000069e+02
-2.242943365799999924e+02
-2.238079760100000044e+02
-2.237849731999999960e+02
-2.241522182999999870e+02
-2.241881818699999940e+02
-2.240695597000000134e+02
-2.235679327100000080e+02
-2.233933351899999877e+02
-2.242386253699999941e+02
-2.235075956999999960e+02
-2.239710177199999919e+02
-2.238525060100000132e+02
-2.238141016799999932e+02
-2.235652637100000106e+02
-2.236569916400000011e+02
-2.237759627099999875e+02
-2.234470897200000081e+02
-2.235281364500000052e+02
-2.238053405299999952e+02
-2.235553709700000127e+02
-2.232418307700000071e+02
-2.231343645999999978e+02
-2.235477907400000106e+02
-2.232215340299999866e+02
-2.238946023700000012e+02
-2.235714235099999883e+02
-2.231701723300000140e+02
-2.233314912300000117e+02
-2.230771602099999882e+02
-2.232366526799999917e+02
-2.227301525599999934e+02
-2.226599117499999920e+02
-2.227522429999999929e+02
-2.227408087599999931e+02
-2.229282372600000031e+02
-2.227646208500000000e+02
-2.222982102800000064e+02
-2.227860539399999880e+02
-2.220080587600000115e+02
-2.220577189999999916e+02
-2.225899435499999868e+02
-2.223688067600000124e+02
-2.228875644500000135e+02
-2.230233448699999883e+02
-2.224977016400000025e+02
-2.228261485600000071e+02
-2.224259510400000011e+02
-2.225853797800000109e+02
-2.229654779100000042e+02
-2.227397833100000071e+02
-2.225035263000000043e+02
-2.228861666299999911e+02
-2.224619089200000133e+02
-2.223960416200000054e+02
-2.222232260499999938e+02
-2.232132886900000130e+02
-2.228730138599999862e+02
-2.221154355200000055e+02
-2.209766003299999966e+02
-2.220559571000000005e+02
-2.220927638000000002e+02
-2.223355814299999906e+02
-2.225195781900000043e+02
-2.223158148800000049e+02
-2.222025797000000011e+02
-2.213244612199999892e+02
-2.215270199100000070e+02
-2.220652644099999975e+02
-2.220251281699999879e+02
-2.213809487700000034e+02
-2.222372271600000033e+02
-2.211411110900000097e+02
-2.212081920599999876e+02
-2.224031966000000011e+02
-2.216462060199999939e+02
-2.214154753299999925e+02
-2.216682407099999921e+02
-2.214354245199999980e+02
-2.208097506100000089e+02
-2.217140432699999906e+02
-2.219669691800000066e+02
-2.213914632000000040e+02
-2.213215739299999996e+02
-2.205604780099999971e+02
-2.208978686199999970e+02
-2.208056681399999945e+02
-2.215528647799999931e+02
-2.222608188700000085e+02
-2.214620848899999999e+02
-2.206584419900000000e+02
-2.214886728300000129e+02
-2.205830835600000057e+02
-2.199879410499999892e+02
-2.213301354099999969e+02
-2.204493987600000082e+02
-2.203046362299999998e+02
-2.210611017800000013e+02
-2.200796090499999877e+02
-2.188186397100000136e+02
-2.198205958400000100e+02
-2.205386488299999996e+02
-2.206250493899999867e+02
-2.199005118400000072e+02
-2.205542603000000099e+02
-2.197851465599999869e+02
-2.193974818199999959e+02
-2.187781778400000121e+02
-2.197098557099999994e+02
-2.203022289699999874e+02
-2.197876950099999931e+02
-2.201995291499999894e+02
-2.195960532000000001e+02
-2.197018356899999958e+02
-2.193721563899999865e+02
-2.203152623299999959e+02
-2.199432917299999986e+02
-2.193137863599999946e+02
-2.203279627699999992e+02
-2.193704505199999915e+02
-2.193342346700000007e+02
-2.193828964399999961e+02
-2.192946446699999967e+02
-2.196565627999999890e+02
-2.196959998799999880e+02
-2.192877389699999924e+02
-2.197650323599999922e+02
-2.188592485099999863e+02
-2.182889575400000126e+02
-2.198673702899999967e+02
-2.200786289000000124e+02
-2.197763843900000040e+02
-2.198064913800000113e+02
-2.186200179299999888e+02
-2.199715904500000079e+02
-2.196258678599999996e+02
-2.187936375600000076e+02
-2.185488902900000028e+02
-2.200839829100000031e+02
-2.188868777399999885e+02
-2.185045791299999962e+02
-2.188612783899999954e+02
-2.202380521599999952e+02
-2.192188521799999990e+02
-2.188803521099999898e+02
-2.180704309900000055e+02
-2.170234643000000005e+02
-2.193551153900000088e+02
-2.200465961799999945e+02
-2.193674272599999995e+02
-2.190726219000000015e+02
-2.175540703099999860e+02
-2.176365446599999984e+02
-2.175433798299999921e+02
-2.170508171200000049e+02
-2.164672746399999994e+02
-2.185229016899999976e+02
-2.172766360599999871e+02
-2.178323718700000029e+02
-2.173287298399999941e+02
-2.172743800300000032e+02
-2.162985857900000042e+02
-2.169323116399999947e+02
-2.192297306600000013e+02
-2.181988648399999988e+02
-2.180559800499999881e+02
-2.167768828300000052e+02
-2.176242046700000117e+02
-2.160655242299999941e+02
-2.173667511099999956e+02
-2.178747208599999965e+02
-2.181658719600000040e+02
-2.183800684599999897e+02
-2.164263343300000031e+02
-2.165029875699999877e+02
