-4.906200000000000144e-02 -2.242900000000000102e-02 2.901509999999999923e-01 -3.232959999999999723e-01 1.035959999999999936e-01 -1.894720000000000015e-01 2.966190000000000215e-01 -2.617940000000000267e-01 1.185220000000000024e-01 -3.490750000000000242e-01 2.589529999999999887e-01 -2.897879999999999900e-01 5.057749999999999746e-01 -3.041470000000000007e-01 3.715030000000000276e-01 -7.569700000000000317e-01 -6.761890000000000400e-01 4.875199999999999673e-02 2.230169999999999930e-01 5.093609999999999527e-01 -2.006499999999999950e-02 1.983290000000000053e-01 2.551399999999999849e-02 2.192129999999999912e-01 6.470200000000000395e-01 6.633200000000000207e-02 -4.810010000000000119e-01 -4.431840000000000224e-01 3.862030000000000185e-01 -3.167220000000000035e-01 1.290560000000000040e-01 -4.612999999999999913e-03 -7.102500000000000480e-02 -3.341199999999999726e-02 -4.292839999999999989e-01 4.473219999999999974e-01 -6.900000000000000577e-02 -2.247609999999999886e-01 -3.201400000000000079e-02 -1.764419999999999877e-01 -1.579909999999999926e-01 -3.720550000000000246e-01 1.781510000000000038e-01 1.697576999999999892e+00 -1.337629999999999930e-01 -6.398439999999999683e-01 6.693820000000000325e-01 6.307989999999999986e-01 1.856400000000000064e-02 3.346230000000000038e-01 -1.158509999999999956e-01 8.154730000000000034e-01 -1.613960000000000117e-01 2.583210000000000228e-01 -2.077279999999999960e-01 7.673099999999999365e-02 -8.571490000000000498e-01 2.730719999999999814e-01 -2.989530000000000243e-01 7.292999999999999483e-02 3.740629999999999789e-01 -2.446039999999999881e-01 -5.337730000000000530e-01 6.122819999999999929e-01 -1.137364999999999959e+00 4.933029999999999915e-01 -3.464949999999999974e-01 -7.776099999999999679e-02 -5.351800000000000307e-02 -3.864119999999999777e-01 -1.125739999999999935e-01 -6.637549999999999839e-01 -1.422123000000000026e+00 -1.308664999999999967e+00 5.073799999999999838e-02 -1.193238000000000021e+00 1.314889999999999948e-01 1.273128000000000037e+00 1.348946999999999896e+00 -4.876460000000000239e-01 8.033759999999999790e-01 -5.134379999999999500e-01 1.014731999999999967e+00 -1.817387000000000086e+00 2.399239999999999984e-01 -4.949100000000000166e-01 -6.862999999999999656e-02 -8.350680000000000325e-01 -2.900099999999999900e-02 6.333689999999999598e-01 -7.447399999999999853e-02 -1.217150000000000037e-01 -4.960099999999999926e-02 4.562499999999999889e-01 8.068599999999999384e-02 -3.572040000000000215e-01 -9.727310000000000123e-01 2.375700000000000034e-02 6.843280000000000474e-01 -2.560350000000000126e-01 -9.975429999999999575e-01 -8.233080000000000398e-01 7.034839999999999982e-01 1.665760000000000018e-01 -3.076990000000000003e-01 -3.610900000000000221e-01 3.445230000000000237e-01 -5.780650000000000510e-01 8.568320000000000380e-01 8.579970000000000097e-01 -5.136389999999999567e-01 1.142781999999999965e+00 -1.068840000000000068e-01 7.087100000000000344e-02 -2.775799999999999934e-01 8.393000000000000460e-02 -1.344799999999999884e-01 4.676199999999999801e-01 -5.722000000000000003e-02 -1.741739999999999955e-01 4.985530000000000239e-01 8.597299999999999387e-02 -4.954499999999999876e-02 4.533440000000000247e-01 6.035719999999999974e-01 -3.570289999999999853e-01 4.207600000000000229e-01 -6.781209999999999738e-01 6.979360000000000008e-01 2.679159999999999875e-01 8.810729999999999951e-01 7.539900000000000491e-01 -1.554932999999999899e+00 -1.572850999999999999e+00 3.381620000000000181e-01 -2.763800000000000145e-01 1.001551999999999998e+00 5.360819999999999474e-01 8.760379999999999834e-01 1.285199999999999954e-01 2.796839999999999882e-01 2.246219999999999883e-01 -1.954930000000000001e-01 -8.659600000000000630e-02 2.864039999999999919e-01 4.814399999999999930e-02 2.869220000000000104e-01 -8.244100000000000039e-02 3.843480000000000230e-01 -1.117009999999999947e-01 -6.250529999999999697e-01 2.414810000000000012e-01 1.405450000000000033e-01 -2.893950000000000133e-01 -4.271300000000000097e-02 5.906200000000000339e-02
6.807199999999999362e-02 4.885109999999999730e-01 5.948649999999999771e-01 3.283619999999999872e-01 -8.329820000000000002e-01 -1.109139999999999987e-01 -1.015950000000000047e-01 -5.113600000000000090e-02 -7.947959999999999470e-01 -6.766800000000000592e-02 5.728599999999999665e-02 -1.742259999999999920e-01 -1.057219999999999965e-01 1.444419999999999871e-01 -9.230299999999999616e-02 2.859849999999999892e-01 -1.142449999999999993e-01 1.459300000000000007e-02 2.940100000000000005e-02 3.936810000000000032e-01 -7.558359999999999523e-01 1.372770000000000101e-01 -1.438989999999999991e-01 3.500199999999999978e-01 1.547810000000000019e-01 1.789939999999999864e-01 -5.221609999999999863e-01 -1.996200000000000058e-02 2.508700000000000166e-02 -1.018430000000000030e-01 2.680700000000000097e-02 1.820229999999999904e-01 -4.869300000000000017e-02 1.829399999999999915e-01 -3.002679999999999794e-01 9.289000000000000035e-02 8.424700000000000244e-02 -3.392299999999999760e-01 3.313459999999999739e-01 -9.690699999999999315e-02 1.304379999999999984e-01 2.139540000000000053e-01 -2.359279999999999988e-01 -5.694179999999999797e-01 -5.613820000000000476e-01 -1.084770000000000040e-01 -1.095209999999999934e-01 -8.075999999999999845e-03 1.948920000000000097e-01 2.920740000000000003e-01 -1.455829999999999902e-01 -7.235600000000000365e-02 -3.264700000000000241e-02 2.458099999999999868e-02 -2.897999999999999882e-02 -9.785999999999999560e-03 -2.284599999999999964e-01 4.341220000000000079e-01 3.309489999999999932e-01 -5.411000000000000254e-01 2.069300000000000028e-01 1.641120000000000079e-01 -1.077359999999999984e-01 1.998310000000000086e-01 -3.704299999999999954e-02 -9.638299999999999645e-02 -5.973400000000000237e-02 4.016950000000000243e-01 -5.797750000000000403e-01 -5.691519999999999913e-01 -1.026930000000000065e-01 -1.080509999999999943e-01 6.428519999999999790e-01 8.077339999999999520e-01 -2.172800000000000079e-02 9.241200000000000525e-01 3.705800000000000066e-02 -9.628090000000000259e-01 -1.226221000000000005e+00 1.248636000000000079e+00 2.900650000000000173e-01 5.539429999999999632e-01 -1.050532000000000021e+00 1.566216999999999970e+00 2.628670000000000173e-01 -4.056890000000000218e-01 4.265499999999999847e-02 2.802069999999999839e-01 2.233449999999999880e-01 -7.170940000000000092e-01 2.647829999999999906e-01 -1.094554999999999945e+00 3.222130000000000272e-01 -2.882730000000000015e-01 -4.214149999999999840e-01 -4.906599999999999850e-02 3.016610000000000125e-01 -2.012600000000000153e-02 6.535050000000000026e-01 2.462920000000000109e-01 3.712710000000000177e-01 -3.605990000000000029e-01 5.721019999999999994e-01 2.043599999999999930e-02 9.351810000000000400e-01 -6.665119999999999933e-01 -5.191769999999999996e-01 -6.765640000000000542e-01 -9.284780000000000255e-01 3.349300000000000055e-01 7.285979999999999679e-01 -2.531889999999999974e-01 -4.312529999999999974e-01 5.823409999999999975e-01 5.146939999999999849e-01 -1.083016999999999896e+00 1.634660000000000002e-01 3.352470000000000172e-01 -4.069320000000000159e-01 -2.175350000000000061e-01 -4.706159999999999788e-01 9.479220000000000423e-01 3.531219999999999914e-01 -1.384309999999999985e-01 -3.383860000000000201e-01 -1.734700000000000131e-02 -5.173060000000000436e-01 9.262559999999999683e-01 2.034890000000000032e-01 1.910099999999999992e-02 -1.564359999999999917e-01 -6.626919999999999478e-01 5.535689999999999777e-01 -6.609900000000000497e-02 -1.080310000000000020e-01 -4.975169999999999870e-01 -1.546530000000000127e-01 7.450930000000000053e-01 -8.902670000000000305e-01 1.046669999999999962e-01 -2.865409999999999902e-01 -7.756079999999999641e-01 5.181379999999999875e-01 3.832289999999999863e-01 -2.992440000000000100e-01 1.044049999999999978e-01 -2.171299999999999966e-02 -2.659710000000000130e-01 2.437239999999999962e-01 1.757299999999999834e-02 2.577119999999999966e-01 6.217899999999999816e-02 4.783899999999999958e-02 6.213170000000000082e-01 5.114500000000000296e-02 4.222000000000000197e-01
2.486480000000000079e-01 2.286870000000000014e-01 3.030610000000000248e-01 4.567100000000000326e-02 -3.418169999999999820e-01 -1.737059999999999993e-01 2.583799999999999986e-02 5.929199999999999748e-02 -4.779860000000000220e-01 1.055569999999999981e-01 4.049900000000000028e-02 6.465200000000000113e-02 -2.433089999999999975e-01 4.988200000000000273e-02 -1.969059999999999977e-01 1.027299999999999915e-02 2.967899999999999983e-01 -2.619600000000000053e-02 -4.095840000000000036e-01 1.707960000000000034e-01 -7.565700000000000203e-02 -6.419700000000000406e-02 3.599189999999999889e-01 2.769690000000000207e-01 -1.800300000000000164e-02 7.380200000000000649e-02 -1.038810000000000011e-01 -4.969099999999999906e-02 4.921600000000000280e-02 -1.254349999999999909e-01 3.233369999999999855e-01 2.918839999999999768e-01 -8.693700000000000039e-02 3.363459999999999783e-01 -9.341000000000000691e-02 5.711399999999999810e-02 -8.352999999999999314e-02 4.396300000000000208e-02 -2.458950000000000025e-01 1.762720000000000120e-01 -1.013560000000000016e-01 3.403120000000000034e-01 -3.658020000000000160e-01 1.516840000000000133e-01 1.386880000000000057e-01 4.386500000000000121e-02 2.382029999999999981e-01 -6.085299999999999737e-02 5.730699999999999683e-02 3.206979999999999831e-01 -1.972160000000000024e-01 -3.348380000000000245e-01 5.647659999999999902e-01 -5.234240000000000004e-01 1.049979999999999941e-01 -2.293520000000000003e-01 1.531939999999999968e-01 2.963199999999999723e-01 7.517400000000000471e-02 -3.332559999999999967e-01 -3.229520000000000168e-01 2.981770000000000254e-01 -1.173369999999999969e-01 2.450199999999999947e-02 -6.506800000000000084e-02 -4.070100000000000107e-02 8.192199999999999482e-02 2.859079999999999955e-01 -2.721279999999999810e-01 -1.034049999999999969e-01 -9.359499999999999764e-02 5.074000000000000385e-03 2.680009999999999892e-01 1.409670000000000090e-01 3.127480000000000260e-01 -5.330240000000000533e-01 -4.648669999999999747e-01 1.637359999999999927e-01 -2.394300000000000039e-01 2.091799999999999909e-02 8.976299999999999557e-02 5.923599999999999699e-02 1.712539999999999896e-01 -4.448110000000000119e-01 -9.759199999999999819e-02 2.787180000000000213e-01 8.876999999999999474e-03 -1.102009999999999934e-01 -2.287190000000000056e-01 4.601879999999999860e-01 -3.591779999999999973e-01 -8.852899999999999658e-02 -2.565720000000000223e-01 -4.202399999999999886e-02 -2.602000000000000146e-03 -1.898499999999999840e-02 -3.040299999999999947e-02 -1.815660000000000052e-01 8.356860000000000399e-01 3.871870000000000034e-01 -2.874999999999999951e-03 -5.576980000000000270e-01 1.910689999999999888e-01 -6.643400000000000694e-02 -1.408169999999999977e-01 -2.146299999999999944e-02 2.672100000000000031e-01 6.358139999999999903e-01 -3.366600000000000148e-01 -4.831070000000000086e-01 2.665020000000000167e-01 9.977679999999999882e-01 4.935649999999999760e-01 -1.161770000000000025e-01 4.356940000000000257e-01 1.442849999999999966e-01 4.249859999999999749e-01 -3.389670000000000183e-01 -4.309479999999999977e-01 -1.427600000000000049e-02 -6.399920000000000053e-01 -5.674599999999999783e-02 1.410559999999999869e-01 1.365449999999999997e-01 -1.891790000000000138e-01 -6.182990000000000430e-01 3.301870000000000083e-01 -5.855230000000000157e-01 1.340369999999999895e-01 -7.581000000000000065e-03 -2.404580000000000051e-01 1.029430000000000067e-01 -2.711819999999999786e-01 -1.216549999999999992e-01 3.050999999999999893e-02 1.471860000000000113e-01 -8.469500000000000639e-02 -1.514599999999999974e-02 2.587849999999999873e-01 -2.730739999999999834e-01 2.070289999999999908e-01 5.187680000000000069e-01 1.800209999999999866e-01 -6.754599999999999493e-02 -1.069770000000000026e-01 -5.448410000000000197e-01 1.258710000000000107e-01 3.443379999999999774e-01 -3.799120000000000275e-01 2.408250000000000113e-01 -2.570500000000000007e-01 1.555800000000000065e-02 2.468930000000000013e-01 -5.685829999999999496e-01 3.849199999999999844e-02 -4.586890000000000134e-01
5.203100000000000086e-02 -7.864999999999999769e-02 2.665299999999999961e-02 -9.784500000000000142e-02 -3.036749999999999727e-01 -3.386170000000000013e-01 3.076139999999999985e-01 3.428050000000000264e-01 -1.130700000000000038e-01 -1.293630000000000058e-01 2.489349999999999896e-01 -9.557200000000000417e-02 3.265799999999999953e-02 1.001400000000000033e-02 -2.100300000000000084e-02 1.500910000000000022e-01 -1.361130000000000118e-01 8.588600000000000401e-02 -3.053660000000000263e-01 2.953839999999999799e-01 -1.554570000000000118e-01 -5.873599999999999655e-02 3.269920000000000049e-01 1.924190000000000067e-01 2.120100000000000040e-01 1.164729999999999932e-01 -2.355599999999999916e-01 -1.375409999999999966e-01 2.239659999999999984e-01 3.113300000000000095e-02 4.420199999999999824e-02 3.751499999999999974e-02 3.909000000000000148e-03 4.110320000000000085e-01 -3.050299999999999886e-02 -6.813199999999999812e-02 -2.175910000000000066e-01 3.870029999999999859e-01 1.135599999999999943e-01 3.244899999999999868e-02 -4.095900000000000235e-02 -1.031900000000000005e-02 -1.557099999999999873e-01 6.607300000000000673e-02 -1.409630000000000050e-01 5.103099999999999997e-02 -2.346159999999999912e-01 -7.044200000000000461e-02 -3.500750000000000250e-01 1.072530000000000011e-01 2.362539999999999918e-01 2.951469999999999927e-01 -5.755799999999999805e-02 3.522480000000000055e-01 -1.083059999999999995e-01 5.938700000000000229e-02 -2.739389999999999881e-01 8.409300000000000108e-02 1.677500000000000102e-01 2.338290000000000091e-01 1.147350000000000037e-01 -1.003760000000000069e-01 4.466799999999999937e-02 3.025140000000000051e-01 5.633200000000000013e-02 1.231960000000000000e-01 -1.003789999999999960e-01 -3.605200000000000071e-02 7.837700000000000222e-02 2.516799999999999940e-02 -2.385900000000000173e-02 -1.071659999999999974e-01 -1.432819999999999927e-01 -1.911410000000000053e-01 -2.856060000000000265e-01 7.409300000000000608e-02 4.021850000000000147e-01 -2.368840000000000112e-01 4.366510000000000113e-01 -2.360430000000000028e-01 -3.808579999999999743e-01 5.784000000000000079e-03 -1.468329999999999913e-01 -4.445810000000000040e-01 -2.191460000000000075e-01 3.281390000000000140e-01 5.448800000000000310e-01 1.621620000000000006e-01 -1.023440000000000044e-01 -1.309399999999999974e-02 -3.241749999999999909e-01 -6.460899999999999976e-02 -3.981900000000000023e-02 1.202980000000000022e-01 -1.154799999999999924e-02 2.849849999999999883e-01 9.636799999999999533e-02 -4.445479999999999987e-01 8.163299999999999723e-02 -2.192550000000000054e-01 2.899789999999999868e-01 -2.078699999999999992e-01 -2.988009999999999833e-01 -1.468629999999999936e-01 -2.216190000000000104e-01 1.991020000000000012e-01 2.222709999999999964e-01 5.603219999999999867e-01 2.271539999999999948e-01 -5.415900000000000158e-01 -1.113300000000000053e-02 -3.410270000000000246e-01 -6.107400000000000329e-02 5.409400000000000319e-02 -1.406459999999999932e-01 -1.710510000000000086e-01 7.984600000000000031e-02 -3.314210000000000211e-01 -1.973890000000000089e-01 2.353570000000000106e-01 7.143900000000000250e-02 -5.308299999999999824e-02 -9.548700000000000243e-02 1.063219999999999998e-01 -1.154040000000000066e-01 -1.889240000000000086e-01 -1.543059999999999987e-01 5.360000000000000181e-03 1.140570000000000056e-01 1.699890000000000012e-01 -5.427099999999999980e-02 1.169720000000000065e-01 3.767880000000000118e-01 -6.212100000000000261e-02 -5.153750000000000275e-01 -1.011520000000000058e-01 9.998300000000000243e-02 1.691880000000000051e-01 -4.458079999999999821e-01 2.138960000000000028e-01 2.903870000000000062e-01 -1.786800000000000055e-01 -3.682099999999999956e-02 3.883799999999999752e-02 3.071510000000000074e-01 3.804469999999999796e-01 -5.003799999999999915e-02 -1.520370000000000055e-01 -2.076159999999999950e-01 1.465319999999999956e-01 3.735100000000000225e-02 -2.728550000000000142e-01 2.202499999999999944e-02 2.052190000000000125e-01 -2.285780000000000034e-01 6.027699999999999725e-02
8.432099999999999318e-02 2.713499999999999940e-02 -2.320699999999999846e-02 2.410130000000000050e-01 -6.091400000000000287e-02 -5.507999999999999702e-02 3.017630000000000035e-01 4.263979999999999992e-01 -1.384330000000000005e-01 -1.570799999999999974e-02 2.497109999999999885e-01 -1.435710000000000042e-01 -9.885700000000000043e-02 1.385750000000000037e-01 5.761100000000000249e-02 1.832640000000000102e-01 1.806919999999999915e-01 1.499890000000000112e-01 -3.321319999999999828e-01 6.286799999999999333e-02 3.338599999999999901e-02 -1.114919999999999939e-01 2.481960000000000000e-01 1.659819999999999907e-01 -1.528110000000000024e-01 1.569419999999999982e-01 -5.519000000000000294e-02 1.593299999999999925e-02 1.168679999999999997e-01 6.797100000000000364e-02 -4.532300000000000217e-02 -1.329609999999999959e-01 3.473500000000000199e-02 3.577000000000000179e-01 -2.332670000000000021e-01 1.159789999999999988e-01 -7.635000000000000293e-03 -5.870000000000000218e-03 1.207939999999999986e-01 -8.879599999999999993e-02 2.122979999999999867e-01 -2.961929999999999841e-01 1.293099999999999979e-02 2.808240000000000181e-01 5.819599999999999773e-02 -2.864849999999999897e-01 1.837429999999999897e-01 -2.471959999999999991e-01 2.059890000000000054e-01 -1.183420000000000027e-01 2.815570000000000017e-01 8.483300000000000562e-02 1.889700000000000060e-02 3.140470000000000206e-01 -9.879499999999999393e-02 5.786600000000000077e-02 -5.518900000000000194e-02 -4.230699999999999739e-02 1.338499999999999933e-02 -3.159049999999999914e-01 4.536600000000000077e-01 -1.418770000000000031e-01 1.005660000000000026e-01 -1.451369999999999882e-01 -2.098900000000000071e-02 3.452999999999999906e-03 -6.600100000000000411e-02 1.359180000000000110e-01 1.080740000000000034e-01 -2.598779999999999979e-01 -2.766179999999999750e-01 -4.518820000000000059e-01 -6.968000000000000582e-02 2.816949999999999732e-01 -2.695230000000000126e-01 8.401799999999999546e-02 -1.658300000000000052e-02 -2.395589999999999942e-01 -1.553869999999999973e-01 4.243770000000000042e-01 2.312109999999999999e-01 1.889740000000000031e-01 5.368000000000000375e-03 7.024460000000000148e-01 -1.026330000000000020e-01 -4.862580000000000235e-01 -5.675000000000000357e-03 4.546209999999999973e-01 1.587909999999999877e-01 -7.529600000000000182e-02 1.164700000000000041e-01 -2.082479999999999887e-01 2.220290000000000041e-01 3.308999999999999875e-03 1.074259999999999937e-01 1.597639999999999894e-01 1.334720000000000073e-01 -4.116250000000000187e-01 -3.055700000000000083e-01 9.453100000000000391e-02 1.175360000000000016e-01 1.953840000000000021e-01 2.850320000000000076e-01 9.604899999999999549e-02 -4.632189999999999919e-01 -8.229799999999999616e-02 2.206549999999999900e-01 4.807359999999999967e-01 -2.216160000000000074e-01 2.082050000000000012e-01 -4.207580000000000209e-01 -3.467299999999999827e-01 -1.540100000000000080e-01 1.624859999999999915e-01 1.989120000000000055e-01 -2.859410000000000007e-01 2.431149999999999978e-01 3.446420000000000039e-01 2.260620000000000129e-01 2.753630000000000244e-01 -9.548099999999999643e-02 -5.707999999999999879e-02 -1.109100000000000016e-02 -3.017989999999999839e-01 -3.099100000000000188e-01 -2.707220000000000182e-01 -8.991300000000000681e-02 1.338469999999999938e-01 -6.202800000000000535e-01 -2.857899999999999885e-01 -8.868299999999999794e-02 -3.026010000000000089e-01 -2.168279999999999930e-01 -4.342369999999999841e-01 2.187260000000000038e-01 -2.250159999999999938e-01 2.522190000000000265e-01 8.757199999999999707e-02 5.200010000000000465e-01 -2.081780000000000019e-01 -2.039060000000000039e-01 4.079200000000000187e-02 2.022900000000000045e-02 2.158609999999999973e-01 -1.357460000000000055e-01 -2.074699999999999878e-01 -6.379400000000000348e-02 8.190100000000000158e-02 -4.050989999999999869e-01 3.824000000000000142e-03 -1.178870000000000057e-01 -3.413919999999999733e-01 1.050640000000000046e-01 -2.899209999999999843e-01 -1.572189999999999976e-01 1.179169999999999940e-01
1.606390000000000040e-01 3.981599999999999723e-02 -1.218970000000000053e-01 3.097420000000000173e-01 -5.741600000000000176e-02 -2.499399999999999886e-02 8.761099999999999444e-02 3.256069999999999798e-01 -1.225119999999999959e-01 1.426630000000000120e-01 2.536550000000000193e-01 -8.706400000000000250e-02 1.708060000000000134e-01 1.626680000000000070e-01 -4.283100000000000102e-02 -1.368920000000000137e-01 -7.499200000000000310e-02 -3.076559999999999850e-01 -1.950419999999999932e-01 1.742440000000000100e-01 1.094330000000000025e-01 -1.113900000000000029e-01 4.692819999999999769e-01 -1.029749999999999971e-01 -2.696399999999999908e-01 -2.096339999999999870e-01 4.882299999999999834e-02 1.004379999999999995e-01 1.727299999999999947e-01 -3.568199999999999844e-02 -1.086280000000000023e-01 9.686799999999999577e-02 1.787310000000000010e-01 3.680550000000000210e-01 2.948599999999999832e-02 -8.785700000000000454e-02 -3.157800000000000190e-02 -1.473530000000000117e-01 -1.032769999999999938e-01 2.675810000000000133e-01 7.921200000000000463e-02 -2.932509999999999839e-01 1.367140000000000022e-01 -1.097889999999999977e-01 2.676780000000000270e-01 -1.116479999999999972e-01 5.438400000000000178e-02 1.029290000000000066e-01 1.138880000000000031e-01 2.252689999999999970e-01 1.520269999999999955e-01 4.170000000000000095e-02 5.702490000000000059e-01 4.927600000000000036e-02 -1.183079999999999965e-01 1.789989999999999915e-01 -2.066840000000000066e-01 -3.478400000000000242e-02 -1.657959999999999989e-01 1.308149999999999868e-01 -1.710899999999999921e-01 1.818700000000000039e-01 -3.450529999999999986e-01 -2.138569999999999915e-01 9.307899999999999507e-02 -1.577560000000000073e-01 1.032200000000000062e-01 8.505999999999999672e-02 -9.145499999999999463e-02 -2.178480000000000139e-01 -2.567860000000000142e-01 -2.234960000000000002e-01 -1.355709999999999971e-01 -8.729000000000000647e-02 8.394620000000000415e-01 -3.941270000000000051e-01 -5.813279999999999559e-01 5.537309999999999732e-01 -2.227099999999999913e-02 -1.336459999999999870e-01 -1.544000000000000095e-01 1.299879999999999924e-01 -1.044910000000000005e-01 -5.582120000000000415e-01 -6.185600000000000126e-02 -2.566599999999999993e-01 1.379589999999999983e-01 -2.703519999999999812e-01 1.599550000000000138e-01 -8.778700000000000392e-02 3.496560000000000223e-01 2.773499999999999924e-02 4.959999999999999999e-03 -4.496839999999999726e-01 -2.118869999999999920e-01 -3.316490000000000271e-01 -2.878220000000000223e-01 8.719499999999999473e-02 4.957300000000000040e-01 -9.533500000000000307e-02 -3.266100000000000114e-01 1.174500000000000023e-02 3.652090000000000058e-01 -2.057150000000000090e-01 3.112499999999999989e-02 -1.551180000000000059e-01 4.464119999999999755e-01 -4.233370000000000188e-01 -3.683000000000000163e-02 4.515210000000000057e-01 -4.971799999999999831e-02 3.708659999999999735e-01 2.524600000000000177e-01 -2.501599999999999935e-01 8.646700000000000219e-02 1.117080000000000017e-01 -9.078899999999999471e-02 3.891459999999999919e-01 -1.861029999999999907e-01 -1.963630000000000098e-01 1.041310000000000013e-01 -5.933399999999999785e-02 -1.964200000000000113e-01 4.984800000000000342e-02 6.045699999999999685e-02 5.294700000000000101e-02 -1.152999999999999945e-03 -2.041149999999999909e-01 4.835999999999999743e-01 1.535900000000000043e-01 -4.043499999999999872e-02 3.507879999999999887e-01 -1.014199999999999963e-01 -7.829999999999999504e-04 2.809809999999999808e-01 3.868030000000000079e-01 -2.729340000000000099e-01 4.256869999999999821e-01 9.178600000000000647e-02 -3.045459999999999834e-01 4.464540000000000175e-01 -5.037679999999999936e-01 -1.659859999999999947e-01 -6.757060000000000288e-01 -3.013839999999999852e-01 -1.834590000000000110e-01 9.842299999999999660e-02 1.052830000000000016e-01 -3.460949999999999860e-01 -7.546100000000000030e-02 -4.483600000000000085e-02 -1.997710000000000041e-01 3.199980000000000047e-01 -3.598000000000000070e-03 1.030309999999999976e-01 -1.288610000000000033e-01
2.082680000000000087e-01 1.283539999999999959e-01 -1.888430000000000109e-01 -3.717600000000000071e-02 -8.740799999999999959e-02 -1.075399999999999967e-01 -2.858199999999999977e-02 6.153700000000000142e-02 -1.231190000000000062e-01 2.427650000000000086e-01 2.041800000000000004e-01 -8.928700000000000525e-02 3.106909999999999950e-01 1.451290000000000080e-01 8.025200000000000389e-02 -3.687630000000000075e-01 -2.011799999999999977e-01 -7.851999999999999605e-03 1.154619999999999952e-01 -3.326099999999999890e-02 2.498099999999999973e-02 -3.434590000000000143e-01 5.847499999999999920e-01 -8.029699999999999338e-02 6.132760000000000433e-01 -1.815970000000000084e-01 -3.915710000000000024e-01 3.577899999999999830e-02 3.096229999999999816e-01 -2.789519999999999778e-01 9.490600000000000425e-02 -3.413700000000000068e-02 1.863700000000000079e-02 1.800539999999999918e-01 1.417940000000000034e-01 -3.296819999999999751e-01 2.716049999999999853e-01 2.566260000000000208e-01 -8.689099999999999602e-02 1.648870000000000058e-01 2.580439999999999956e-01 9.371500000000000663e-02 3.393999999999999795e-02 -1.481830000000000092e-01 1.133139999999999981e-01 -1.855009999999999992e-01 -1.522789999999999977e-01 4.387400000000000327e-02 -1.867489999999999983e-01 8.606300000000000061e-02 1.142309999999999992e-01 5.802500000000000019e-02 3.759460000000000024e-01 3.363010000000000166e-01 -8.501400000000000623e-02 5.379699999999999760e-02 1.501200000000000034e-01 -2.596220000000000194e-01 -2.010399999999999965e-01 -1.859909999999999897e-01 5.170799999999999702e-02 -1.901900000000000118e-02 -4.104039999999999910e-01 6.723500000000000310e-02 -2.600959999999999939e-01 -5.258299999999999780e-02 2.809769999999999768e-01 2.245320000000000094e-01 1.583930000000000060e-01 -5.681159999999999544e-01 -1.647170000000000023e-01 -3.646400000000000197e-01 5.955120000000000413e-01 -2.335999999999999969e-03 -6.988300000000000067e-02 6.164859999999999784e-01 5.606370000000000520e-01 -3.418760000000000132e-01 -8.990599999999999981e-02 1.300320000000000087e-01 2.785900000000000043e-01 2.451820000000000110e-01 -5.592559999999999754e-01 -1.392359999999999987e-01 -2.783030000000000226e-01 -8.349099999999999577e-02 4.477889999999999926e-01 3.942970000000000086e-01 7.210099999999999842e-02 -1.474749999999999950e-01 2.409429999999999905e-01 1.200309999999999988e-01 2.765360000000000040e-01 -5.130670000000000508e-01 -2.444969999999999921e-01 -3.064669999999999894e-01 2.623869999999999814e-01 -6.116420000000000190e-01 2.992009999999999947e-01 3.065019999999999967e-01 2.101780000000000037e-01 -1.314300000000000017e-02 2.791210000000000080e-01 -4.534099999999999797e-01 2.483869999999999967e-01 -6.733289999999999553e-01 -3.556139999999999857e-01 -4.527340000000000253e-01 -7.065249999999999586e-01 1.798819999999999864e-01 5.817700000000000093e-01 -2.679500000000000215e-01 -1.274720000000000020e-01 -2.737200000000000050e-02 -4.335620000000000029e-01 -3.856300000000000006e-02 -1.016999999999999987e-01 -9.384499999999999786e-02 -8.323400000000000243e-02 -1.769599999999999992e-02 -1.835890000000000022e-01 2.657149999999999790e-01 2.371699999999999919e-01 -4.234879999999999756e-01 -3.996179999999999732e-01 1.332240000000000091e-01 -8.837599999999999623e-02 1.246580000000000049e-01 -2.536760000000000126e-01 -2.649150000000000116e-01 -1.580759999999999943e-01 -1.805430000000000090e-01 4.059429999999999983e-01 -3.629099999999999687e-02 -2.314509999999999901e-01 -3.403970000000000051e-01 5.417750000000000066e-01 1.951029999999999986e-01 -5.645229999999999970e-01 -4.050299999999999734e-02 -4.896199999999999858e-02 2.791560000000000152e-01 2.276529999999999943e-01 5.637999999999999678e-01 4.600509999999999877e-01 2.292609999999999926e-01 4.033669999999999756e-01 4.187620000000000231e-01 -3.753420000000000090e-01 2.374499999999999875e-02 -1.369070000000000009e-01 -3.199980000000000047e-01 -5.737600000000000339e-02 -1.122540000000000066e-01 -1.200390000000000068e-01 2.647459999999999813e-01