2.728559249221658600e+00 4.159761319561319226e+00 -1.821164968366650871e+00 4.159761319561319226e+00 7.077853142697468236e+00 3.711223759824170632e+00 -1.821164968366650871e+00 3.711223759824170632e+00 3.959515905277028125e+00
-2.812418838731140999e-02 2.060987050720890945e+00 2.381507361005552159e+00 2.060987050720890945e+00 -2.946561971847206252e+00 5.225313151866923800e-01 2.381507361005552159e+00 5.225313151866923800e-01 2.133555211043272948e+00
-4.144843271808049678e+00 1.259265754270890492e+00 2.953719771648854575e+00 1.259265754270890492e+00 1.519600897890022173e-01 6.188633708505479891e-01 2.953719771648854575e+00 6.188633708505479891e-01 -3.082685429575060532e-01
-4.113587546007517193e-01 -7.998185146693954639e-01 1.406740289517526277e+00 -7.998185146693954639e-01 -9.058195648986448745e-02 1.491894247824473663e+00 1.406740289517526277e+00 1.491894247824473663e+00 -6.322723158123032539e-01
-2.517099948581451141e+00 -2.579730696845877191e-01 1.024513780109484795e+00 -2.579730696845877191e-01 -2.154986856616042612e+00 1.681015248250369076e+00 1.024513780109484795e+00 1.681015248250369076e+00 6.043330372532010886e-01
-2.548719529205234924e+00 9.275136631308086299e-01 -1.675521636902603528e-02 9.275136631308086299e-01 -4.761237201727028356e+00 6.187560038535231399e-01 -1.675521636902603528e-02 6.187560038535231399e-01 -2.478435899986211943e+00
-3.992054070208689964e+00 -7.488072614163123752e-01 -5.494446424408914176e-01 -7.488072614163123752e-01 -2.677440628971550662e+00 -2.274080715649141382e+00 -5.494446424408914176e-01 -2.274080715649141382e+00 -3.594098295736525284e+00
-3.383140041082433491e+00 -9.970337937043216581e-01 2.519670791676877020e+00 -9.970337937043216581e-01 -2.710306859727454221e+00 4.319851476958360692e+00 2.519670791676877020e+00 4.319851476958360692e+00 -5.682517614197235556e-01
-3.898537415800149120e+00 3.544190536619529652e+00 1.537608729224336779e+00 3.544190536619529652e+00 1.527056939350073028e+00 9.194074548554413973e-01 1.537608729224336779e+00 9.194074548554413973e-01 -7.345513101446953241e-01
-5.131641411796014296e+00 1.060290849451392292e+00 -5.619290382616004553e-01 1.060290849451392292e+00 -2.423917324830320741e+00 1.024621147106509644e+00 -5.619290382616004553e-01 1.024621147106509644e+00 -5.071897642784918558e-02
-4.966862895528891819e+00 3.023454636216417857e+00 1.058614731331172898e+00 3.023454636216417857e+00 -5.780746486808527429e+00 1.919274544314582442e+00 1.058614731331172898e+00 1.919274544314582442e+00 -3.577396762866011937e+00
-5.116395298218502141e+00 2.644019668731019124e+00 -7.642144254893612487e-02 2.644019668731019124e+00 -5.264036848793843149e+00 -2.401805688276394513e+00 -7.642144254893612487e-02 -2.401805688276394513e+00 -3.564065360735440890e+00
-1.886396383892342543e+00 -1.624265825489630499e+00 1.347515460992051162e-01 -1.624265825489630499e+00 -3.283646623839516554e+00 5.083827309121000115e-02 1.347515460992051162e-01 5.083827309121000115e-02 5.369960356191907369e-01
-3.637969643687463783e+00 1.230067895913331683e-01 1.724570460043401532e+00 1.230067895913331683e-01 5.008670411203688388e-01 7.571938168505774058e-01 1.724570460043401532e+00 7.571938168505774058e-01 -2.218518294688843095e+00
-2.280027654317677843e+00 2.636241526279894387e+00 7.081986772082919934e-01 2.636241526279894387e+00 -1.242170542411286105e+00 -2.138213745747512551e+00 7.081986772082919934e-01 -2.138213745747512551e+00 8.684797092667108087e-01
-4.874604820918808201e+00 2.846161899962746489e+00 -2.110536919847804338e+00 2.846161899962746489e+00 -6.403552612383149878e+00 -7.534717609537201488e-01 -2.110536919847804338e+00 -7.534717609537201488e-01 -2.888124501299912605e+00
-1.853840324461177191e+00 2.191449881772274733e+00 1.601665072615924723e+00 2.191449881772274733e+00 -1.483961019710979601e+00 1.349841745927586878e+00 1.601665072615924723e+00 1.349841745927586878e+00 -1.691465635960776037e+00
-2.845690678142471786e+00 2.783304488037935176e+00 -8.188105434764367807e-01 2.783304488037935176e+00 -5.997597996632643813e+00 -8.788406244795974320e-01 -8.188105434764367807e-01 -8.788406244795974320e-01 -3.287786218058136534e+00
-5.907624453125919217e+00 2.531958348003040538e+00 1.191982436135392565e+00 2.531958348003040538e+00 -6.548730686860089634e+00 4.445351566813934840e-01 1.191982436135392565e+00 4.445351566813934840e-01 -5.069225397525636723e+00
-7.679245517198824977e-01 2.530592401207559128e+00 2.605021589478369592e-01 2.530592401207559128e+00 -4.156850480975315065e+00 8.451989654118484685e-01 2.605021589478369592e-01 8.451989654118484685e-01 -6.412195655643640468e-02
-2.946037066528418347e+00 7.352611252916921858e-01 -1.400864928847006086e+00 7.352611252916921858e-01 -3.950043750206180260e+00 -1.074683991885874296e-01 -1.400864928847006086e+00 -1.074683991885874296e-01 1.848137943952530504e+00
-4.957110393299146267e+00 1.861266541755387749e+00 -1.059008410320263494e+00 1.861266541755387749e+00 -4.320251120780619125e+00 -1.841439436304820765e+00 -1.059008410320263494e+00 -1.841439436304820765e+00 -4.620789239952344474e+00
-3.782760004008481669e+00 5.914847866092415307e-01 -7.522847591532801081e-02 5.914847866092415307e-01 -3.014233004138627159e+00 7.209992091869070752e-01 -7.522847591532801081e-02 7.209992091869070752e-01 -3.214108598766499014e+00
-4.840760357523346435e+00 2.399867117496781610e+00 2.676247662337942756e+00 2.399867117496781610e+00 -1.862554945719684385e+00 1.885006577764189450e-01 2.676247662337942756e+00 1.885006577764189450e-01 -3.738107262912529372e+00
-4.596321494297042065e-01 -2.664968162817177855e-01 8.420077796669467318e-01 -2.664968162817177855e-01 -6.255028266498939615e+00 3.621846699634250627e-02 8.420077796669467318e-01 3.621846699634250627e-02 1.515127273013991971e-01
-5.579892659541096478e+00 3.250219698765816734e+00 -5.267937849685741192e+00 3.250219698765816734e+00 -7.855088798992660992e-01 2.065114715273174806e+00 -5.267937849685741192e+00 2.065114715273174806e+00 -3.013970551479232984e+00
-4.960212106546526556e+00 1.278347255575452257e+00 1.056956507710457682e+00 1.278347255575452257e+00 -6.582282873430318482e+00 -6.084666666386531197e-01 1.056956507710457682e+00 -6.084666666386531197e-01 -4.026256423594234413e+00
-1.689252682855433063e+00 -1.698820275256969881e+00 -5.622451744195065826e-02 -1.698820275256969881e+00 -2.892789000837320046e+00 -3.110415938973281502e+00 -5.622451744195065826e-02 -3.110415938973281502e+00 -4.301241197474073991e-02
-4.081562356728307250e+00 -9.206541049875618388e-01 -7.191680054043186887e-01 -9.206541049875618388e-01 3.703964557858665074e+00 -2.722421435891744679e+00 -7.191680054043186887e-01 -2.722421435891744679e+00 -1.446472043249844575e+00
-1.042241264284901492e+00 3.818877068840966782e+00 1.865889287460619217e+00 3.818877068840966782e+00 -3.715202303547253671e+00 1.103714834914727883e+00 1.865889287460619217e+00 1.103714834914727883e+00 2.538454051323036698e+00
1.193091895104648081e+00 4.536011066134983949e+00 2.876170975631159088e+00 4.536011066134983949e+00 -8.093085642397481738e-01 1.882459594001435921e+00 2.876170975631159088e+00 1.882459594001435921e+00 -2.243624277493126318e+00
-7.371698719054651239e-01 1.117857454356152136e+00 7.259261613837085791e-01 1.117857454356152136e+00 -4.087509295396843712e+00 -2.053978371748443443e+00 7.259261613837085791e-01 -2.053978371748443443e+00 -3.852870653065630702e+00
-3.588270653731350013e+00 2.218923903344269810e+00 1.684379414157143984e+00 2.218923903344269810e+00 -2.366929308742861338e+00 1.249393955377783305e+00 1.684379414157143984e+00 1.249393955377783305e+00 -1.239784609144069849e+00
-5.225432448530283880e-01 -6.631462922900813739e-01 -3.619759008025436042e-01 -6.631462922900813739e-01 1.628936289860206388e-01 -1.253396358433538360e+00 -3.619759008025436042e-01 -1.253396358433538360e+00 -9.200158678385815803e-01
-1.410712868407441256e+00 2.326952996850653044e+00 -3.092455826304310929e+00 2.326952996850653044e+00 1.463531466110440660e-01 -2.086743200340490212e+00 -3.092455826304310929e+00 -2.086743200340490212e+00 -1.658718701868233003e+00
-3.896843403180425991e+00 2.259419155722097727e-01 -3.048829036513262203e+00 2.259419155722097727e-01 -2.239794854599243823e-01 -1.857079228871423071e+00 -3.048829036513262203e+00 -1.857079228871423071e+00 -1.649234617131048575e+00
-3.416143463001202196e+00 -1.903974747238558196e-01 -2.328873673130761990e+00 -1.903974747238558196e-01 -3.452493156327241408e+00 -2.201351504831222439e+00 -2.328873673130761990e+00 -2.201351504831222439e+00 -6.053339362587982109e+00
-6.465342319170882535e-01 1.444002602318275708e+00 1.645578174399039695e-01 1.444002602318275708e+00 -5.389352028821207341e+00 1.562303138540025005e+00 1.645578174399039695e-01 1.562303138540025005e+00 -1.473027480513961374e+00
-2.575591102627257545e+00 1.767994445506736900e+00 2.465826242668974100e+00 1.767994445506736900e+00 -2.596026621060964601e+00 3.092968801956762714e+00 2.465826242668974100e+00 3.092968801956762714e+00 -5.743174002683039348e+00
-4.194047180611216952e+00 -8.894878516845498018e-01 1.192435763456163533e+00 -8.894878516845498018e-01 -1.162611597615960557e+00 6.676736006646242227e-01 1.192435763456163533e+00 6.676736006646242227e-01 3.287994987219017839e-01
9.119573782285588237e-01 1.153324352373321426e+00 -2.966788721120031891e+00 1.153324352373321426e+00 -3.288066565217034221e+00 -2.428742874863266010e+00 -2.966788721120031891e+00 -2.428742874863266010e+00 8.782023873306169515e-01
-3.417461691131339130e+00 2.325968799377926555e+00 5.587694661324893453e+00 2.325968799377926555e+00 -6.856754671657706579e-01 3.441470144632702843e-01 5.587694661324893453e+00 3.441470144632702843e-01 -5.237183169871323152e+00
6.575333842789551353e-01 1.105283586037922455e-01 -2.797506755811039400e-02 1.105283586037922455e-01 -7.185118737558341628e+00 2.487430868403617268e+00 -2.797506755811039400e-02 2.487430868403617268e+00 1.664719324035282000e+00
2.645200705698291355e+00 3.150475758529841741e+00 -5.725822302997208846e-01 3.150475758529841741e+00 1.915188633594474554e-01 2.637780453237248857e+00 -5.725822302997208846e-01 2.637780453237248857e+00 -2.665940430623568336e+00
5.802589705869892756e-02 3.051847242096290547e-01 2.752233672065611536e-01 3.051847242096290547e-01 3.314896384806881313e-01 4.458844019440042494e+00 2.752233672065611536e-01 4.458844019440042494e+00 6.707991732446774158e-01
-3.251973359717220458e+00 -1.751740275123826462e+00 -1.647290081518267391e+00 -1.751740275123826462e+00 -9.621407126379180497e+00 7.092186636800269089e-03 -1.647290081518267391e+00 7.092186636800269089e-03 4.837241105954201981e-01
-4.599083212053844960e+00 8.538241141728351025e-01 1.021573117357640781e+00 8.538241141728351025e-01 -7.955882549866211129e+00 2.711201584702660039e+00 1.021573117357640781e+00 2.711201584702660039e+00 3.888176500587263162e-01
1.573922633551367856e+00 -6.964598855335880634e-01 -3.737922353084320304e-01 -6.964598855335880634e-01 -2.931178667106829838e+00 -1.415007548288430561e+00 -3.737922353084320304e-01 -1.415007548288430561e+00 -2.343887158214720490e+00
-2.303809444158655406e+00 -6.947241190816882961e-01 2.051425423152521965e+00 -6.947241190816882961e-01 -1.876655811328932444e+00 3.324201524549024622e+00 2.051425423152521965e+00 3.324201524549024622e+00 2.945571809541311481e+00
2.892717422839303776e+00 2.855109149714807781e+00 4.942645672866647466e+00 2.855109149714807781e+00 -2.586626043988132118e+00 2.908983522888550777e+00 4.942645672866647466e+00 2.908983522888550777e+00 4.512533482785576311e+00
-2.737816670298457211e+00 1.091051494098977725e+00 -1.521366488507762238e+00 1.091051494098977725e+00 -3.748963259278363491e+00 -6.748671894652811254e-01 -1.521366488507762238e+00 -6.748671894652811254e-01 -3.385704919344691088e+00
-7.339011433293789466e+00 1.056634406719383357e+00 -1.498306443480117212e+00 1.056634406719383357e+00 -5.791823182001578196e+00 -1.903867380241533569e+00 -1.498306443480117212e+00 -1.903867380241533569e+00 -3.732214007742505668e+00
-1.134403901564296824e+00 3.081969649594895611e-01 4.367862419127919615e+00 3.081969649594895611e-01 -2.681842675849564372e+00 7.885390151486306731e-01 4.367862419127919615e+00 7.885390151486306731e-01 4.858016619878487319e+00
6.552846421746037819e+00 -2.235697014212800315e+00 2.576927225256898435e+00 -2.235697014212800315e+00 5.438424711294677749e+00 -2.266165382035151499e+00 2.576927225256898435e+00 -2.266165382035151499e+00 4.562751413227309705e+00
-3.076303058085256836e-01 2.772812346495351576e+00 -2.211611017880251939e+00 2.772812346495351576e+00 8.869110437559561688e-02 1.924535527168794280e+00 -2.211611017880251939e+00 1.924535527168794280e+00 1.851520004358809368e+00
-1.236641142064512477e+00 -6.767997954117261905e-01 -1.969080901267721284e+00 -6.767997954117261905e-01 -2.637959398232289754e+00 3.929154904451701569e+00 -1.969080901267721284e+00 3.929154904451701569e+00 -5.133544193576619286e+00
-4.527230831711628767e+00 -1.264771295284991881e+00 3.382961096087392150e+00 -1.264771295284991881e+00 -4.346973573373441369e+00 -1.365392065996668958e+00 3.382961096087392150e+00 -1.365392065996668958e+00 1.257905772308577363e+00
4.290230115445870851e+00 -1.056306340895141194e+00 2.279783096157788069e+00 -1.056306340895141194e+00 -2.391838452052598818e+00 -4.314888735762551164e+00 2.279783096157788069e+00 -4.314888735762551164e+00 -2.680440940055075050e+00
3.734659589341401631e+00 -4.281020413034416272e+00 -1.891985432570796766e+00 -4.281020413034416272e+00 6.735489613351441918e-02 -2.694106372843056096e+00 -1.891985432570796766e+00 -2.694106372843056096e+00 -9.994972698027225766e-01
3.608783714996241510e-01 -6.542229018706925692e-02 1.110085276738195237e+00 -6.542229018706925692e-02 -4.084407582149462534e+00 8.973972204653716256e-01 1.110085276738195237e+00 8.973972204653716256e-01 -1.549096997905982986e+00
-2.407537892950881719e+00 -3.559096654706463081e+00 1.924547456835130399e+00 -3.559096654706463081e+00 -6.030851941544470129e+00 -1.312102246473394240e+00 1.924547456835130399e+00 -1.312102246473394240e+00 -9.801962626375766874e+00
-1.657018724415341593e+00 -4.649432368825276107e+00 1.919441559643287665e+00 -4.649432368825276107e+00 -3.104892503459675712e+00 4.565411728820255810e+00 1.919441559643287665e+00 4.565411728820255810e+00 2.148640274125247718e+00
4.402160209844153016e+00 -1.583484261119737058e+00 -6.146521986339112953e-01 -1.583484261119737058e+00 2.437022063300506414e+00 -4.822507968029142167e-01 -6.146521986339112953e-01 -4.822507968029142167e-01 5.190836416155648614e-01
-1.894502592167709887e+00 -2.331862054547950258e+00 1.925054467654413681e+00 -2.331862054547950258e+00 -1.213700393700228419e+00 -2.907856169419790679e-02 1.925054467654413681e+00 -2.907856169419790679e-02 1.457328039615678472e+00
-1.297888049033953273e+00 -3.354622173706031329e+00 2.431200386128498980e+00 -3.354622173706031329e+00 -1.694406298712620051e+00 3.483587831632237286e+00 2.431200386128498980e+00 3.483587831632237286e+00 2.786173572791762754e-02
-7.946082328971121100e+00 -2.017616748756067668e+00 2.518328704214067848e+00 -2.017616748756067668e+00 -3.295677692339454179e+00 -3.739956361194622048e+00 2.518328704214067848e+00 -3.739956361194622048e+00 2.564335462439164548e+00
3.339877106114635286e+00 -5.722601293086467811e-01 -9.926735006584840315e-01 -5.722601293086467811e-01 -2.857238595155798144e+00 3.400730334094985152e-01 -9.926735006584840315e-01 3.400730334094985152e-01 -4.539309618876910868e+00
3.352928161086307757e+00 1.650886875918596008e-01 4.931533188674587898e+00 1.650886875918596008e-01 7.864924808886760488e+00 1.896387479448810698e+00 4.931533188674587898e+00 1.896387479448810698e+00 8.323083644523958213e+00
-7.390010756880536213e-01 -2.614320764387344731e+00 1.658301163546470391e+00 -2.614320764387344731e+00 3.271472399343545168e-01 -2.888416778125146411e+00 1.658301163546470391e+00 -2.888416778125146411e+00 1.076580808833311087e+00
-4.552360673848583339e+00 -3.920088358036279974e+00 -5.487067925780048760e+00 -3.920088358036279974e+00 1.821892678013151912e+00 2.216102537255786764e+00 -5.487067925780048760e+00 2.216102537255786764e+00 -4.642692107345389729e+00
-6.473913784433356966e+00 3.460140072448669724e-01 -9.880149659542444840e-02 3.460140072448669724e-01 -6.871964996236210599e-01 1.563293300845919553e+00 -9.880149659542444840e-02 1.563293300845919553e+00 -4.584779542116883988e+00
1.060547337277618039e-02 -3.501774607961593011e-01 1.094904776325531931e-01 -3.501774607961593011e-01 3.090022174371750197e+00 1.046738748493604154e+00 1.094904776325531931e-01 1.046738748493604154e+00 -9.170758015700544163e+00
1.138394374953715760e+00 -2.464251526712611662e-01 2.107357663769238609e+00 -2.464251526712611662e-01 3.210547593365178809e+00 5.546429945468388745e+00 2.107357663769238609e+00 5.546429945468388745e+00 4.382315209894081853e+00
5.209053016650844192e+00 -2.021052492660859290e+00 3.300634468702095869e+00 -2.021052492660859290e+00 3.749768511756048639e+00 1.321377562049697252e+00 3.300634468702095869e+00 1.321377562049697252e+00 -5.188122417064190195e+00
-4.353594538189966556e+00 -6.186534087230328716e+00 -3.349790658839918445e-01 -6.186534087230328716e+00 -2.820519082173340131e+00 2.849490276870513483e+00 -3.349790658839918445e-01 2.849490276870513483e+00 2.881068103662120627e+00
-3.863893664760169155e+00 -2.033232681989998181e-01 4.957313197626859180e-01 -2.033232681989998181e-01 -5.539367582997428485e+00 2.726054019291081598e+00 4.957313197626859180e-01 2.726054019291081598e+00 -4.992308873823753324e+00
-1.226793202504077307e+00 4.815063856235426876e+00 7.912231900742491275e-01 4.815063856235426876e+00 7.768061883070949136e-01 1.793529896299118631e+00 7.912231900742491275e-01 1.793529896299118631e+00 3.659252168431032626e+00
3.668801866333065487e+00 -2.001267141042468278e+00 -2.730414312336919114e+00 -2.001267141042468278e+00 6.344244276193322207e+00 2.811959546577202040e+00 -2.730414312336919114e+00 2.811959546577202040e+00 1.790016609563142680e+00
2.733677076079837232e+00 7.970567969125926799e-01 2.976105790528511097e+00 7.970567969125926799e-01 2.702009776790709417e+00 9.327448218191801699e-01 2.976105790528511097e+00 9.327448218191801699e-01 -1.838385441722784064e+00
-6.334813874954650537e+00 1.337327525941037765e+00 4.121729543281892560e+00 1.337327525941037765e+00 -1.325403824438124767e+00 -2.842976679051013367e+00 4.121729543281892560e+00 -2.842976679051013367e+00 -4.204885282477546227e+00
2.145449088380345870e+00 2.911220335326565323e+00 1.524999071907098935e+00 2.911220335326565323e+00 2.769436250922240994e+00 3.627071893489453469e+00 1.524999071907098935e+00 3.627071893489453469e+00 -4.394119614733634549e+00
-3.235504455340260654e-01 1.801832944069031273e+00 2.375196567513765622e+00 1.801832944069031273e+00 1.304115334861387643e+00 4.599244262549381790e-01 2.375196567513765622e+00 4.599244262549381790e-01 -1.181317314430935905e+00
3.569415816087173066e-01 -6.144553591393659975e-01 2.306535372916450388e+00 -6.144553591393659975e-01 -2.522110408442605478e-01 -2.910719289340450433e-01 2.306535372916450388e+00 -2.910719289340450433e-01 -1.281961944475284998e+00
1.094970389490380391e+00 -6.443212788117452794e-02 -4.018072672487682517e+00 -6.443212788117452794e-02 -4.132716765977423101e+00 3.346086497442565033e+00 -4.018072672487682517e+00 3.346086497442565033e+00 9.599384962322772274e-01
-1.065050786319488685e+00 2.558149930443906594e+00 9.551547000315087743e+00 2.558149930443906594e+00 8.723628156591052285e-01 2.835085204769695610e-01 9.551547000315087743e+00 2.835085204769695610e-01 -9.315578200187401015e-01
-7.447511748620446737e-01 1.070448960336565447e+00 1.725626235514144541e-02 1.070448960336565447e+00 8.350169951940030755e-01 1.395466754829929545e+00 1.725626235514144541e-02 1.395466754829929545e+00 -1.980682501779560623e+00
-1.168779235111714554e+00 -6.293853365589716642e-01 -3.331234062854144362e+00 -6.293853365589716642e-01 2.046921974110651021e+00 -4.253641828793109925e-01 -3.331234062854144362e+00 -4.253641828793109925e-01 -5.453050482222713269e-01
3.789983416974978425e+00 -7.069878160751796869e-01 2.437403812623260890e+00 -7.069878160751796869e-01 2.597273271193084820e+00 1.532455113367149790e+00 2.437403812623260890e+00 1.532455113367149790e+00 2.872711372393695672e+00
5.029099964804228051e+00 -4.571841818975403093e+00 2.500702622202507719e+00 -4.571841818975403093e+00 7.115837200311550426e+00 -1.724850807202299163e-01 2.500702622202507719e+00 -1.724850807202299163e-01 6.178493492119809805e-01
-1.954210572179796213e+00 1.455461046834081840e+00 4.865192314179640043e+00 1.455461046834081840e+00 2.605063343310546120e+00 7.995632198098033605e+00 4.865192314179640043e+00 7.995632198098033605e+00 -1.309680524207169405e+00
1.132954447104462803e+00 -4.868723495415120617e+00 2.737196327648981242e+00 -4.868723495415120617e+00 -4.379440160307086494e+00 -1.610773372863522956e+00 2.737196327648981242e+00 -1.610773372863522956e+00 -2.810742720610921452e+00
-5.649007181459182902e+00 5.927845237565576575e+00 -2.184393484134482755e+00 5.927845237565576575e+00 8.414339627161810498e+00 1.433635722272221358e+00 -2.184393484134482755e+00 1.433635722272221358e+00 -3.082315609918642174e+00
4.924446966870955622e-01 1.662440757765090371e+00 8.405583252071128220e-01 1.662440757765090371e+00 -2.889066944940462678e-01 -8.333766660727918163e-01 8.405583252071128220e-01 -8.333766660727918163e-01 -2.583458717575902952e+00
-3.044904176288691477e+00 -1.376796827013962554e+00 8.034033794033879072e-02 -1.376796827013962554e+00 3.100299581920284542e+00 -3.726529521733362715e-01 8.034033794033879072e-02 -3.726529521733362715e-01 3.289253567017474289e+00
4.273546477074861905e+00 -5.572168200588483167e-01 7.379989837158227317e-01 -5.572168200588483167e-01 2.960328806799044088e+00 1.952975851714011890e+00 7.379989837158227317e-01 1.952975851714011890e+00 -4.456923343159933243e-02
2.559563595904732036e+00 -4.173557978678997138e+00 -3.914028087537550604e+00 -4.173557978678997138e+00 -1.491446885336870642e-01 -1.684504675653672567e+00 -3.914028087537550604e+00 -1.684504675653672567e+00 2.224065589535120679e+00
-1.362338071414632035e+00 -3.899390386943179521e-01 8.202242089372624445e-01 -3.899390386943179521e-01 -3.518595437495467548e-01 -3.195647440111413218e+00 8.202242089372624445e-01 -3.195647440111413218e+00 -2.094765900951504722e+00
3.929244376949222239e+00 1.301109058944695251e-01 -1.380823089402389847e+00 1.301109058944695251e-01 -3.752470581181170939e+00 -7.459202821629806746e-01 -1.380823089402389847e+00 -7.459202821629806746e-01 5.928984520700672611e+00
5.533516081659580976e+00 -1.817001514815358432e+00 -1.272842907527984657e+01 -1.817001514815358432e+00 8.108504736136865176e+00 5.643734268938634280e+00 -1.272842907527984657e+01 5.643734268938634280e+00 4.834628509026599907e+00
1.682202250050808923e+00 -2.091103493386328172e+00 -3.405710969790299192e+00 -2.091103493386328172e+00 -3.164165050650495470e+00 -2.101142307608140136e+00 -3.405710969790299192e+00 -2.101142307608140136e+00 -1.473021515680793314e+00
2.804485610617647229e+00 3.823589287043719143e+00 -4.747351070111830440e-01 3.823589287043719143e+00 7.687983997790003521e+00 -1.573976317049880391e+00 -4.747351070111830440e-01 -1.573976317049880391e+00 -1.845185351534350371e+00
2.997990763422052396e+00 1.251231123993539862e+00 -7.395140513405050742e-01 1.251231123993539862e+00 2.531654141511470169e+00 2.374206405207870851e+00 -7.395140513405050742e-01 2.374206405207870851e+00 4.042415156646456786e+00
1.299373292492795429e+00 7.603993181950824187e+00 4.406681553385527472e+00 7.603993181950824187e+00 -6.108406702395333676e-01 -2.770587463723672705e+00 4.406681553385527472e+00 -2.770587463723672705e+00 -3.419173598250566659e+00
-1.496367872700504087e+00 -6.767640064127180555e-01 3.767997041917580781e+00 -6.767640064127180555e-01 -5.099121141363856857e+00 -1.382863062345859761e+00 3.767997041917580781e+00 -1.382863062345859761e+00 -1.689115491692567916e+00
5.043087498583282979e-01 1.101239429149990956e+00 2.560523934044786620e-01 1.101239429149990956e+00 7.824548853172293761e+00 4.498611562171369371e+00 2.560523934044786620e-01 4.498611562171369371e+00 1.179378743651322781e+00
6.331020241059777121e+00 7.021682308754028101e-01 1.538879238689129458e+00 7.021682308754028101e-01 4.568018360914689602e+00 7.352670901248601343e-01 1.538879238689129458e+00 7.352670901248601343e-01 9.717554272214824707e+00
3.049073594673151533e+00 2.851780772807041231e+00 6.847926718569006255e-01 2.851780772807041231e+00 5.060856736590875649e+00 7.459083524966446666e-01 6.847926718569006255e-01 7.459083524966446666e-01 1.742554432045043900e+00
1.520877372187982912e+00 1.821761451683454824e+00 2.940662751844013920e-02 1.821761451683454824e+00 6.642259270934967041e-01 3.648455820396879101e+00 2.940662751844013920e-02 3.648455820396879101e+00 -3.137740839716075314e+00
6.741812336509565018e-01 1.746377890105757613e+00 1.977383949037633926e+00 1.746377890105757613e+00 -3.564799035215109768e+00 7.546408682546560387e-01 1.977383949037633926e+00 7.546408682546560387e-01 2.351038993183200976e-01
-5.655115170623256304e+00 -1.899483227863023815e+00 2.055117654883539036e+00 -1.899483227863023815e+00 9.810480408139728992e-01 7.070176402410199845e-01 2.055117654883539036e+00 7.070176402410199845e-01 2.515286639298366822e+00
-1.207950294526237034e+00 -3.358803521756827948e+00 -1.986044886797629028e+00 -3.358803521756827948e+00 8.924040586204048608e+00 1.590558553257033214e+00 -1.986044886797629028e+00 1.590558553257033214e+00 9.512590674894614295e+00
6.172952162106700946e+00 -1.992570414283465485e+00 4.587374244544981661e-01 -1.992570414283465485e+00 9.495119678545422826e-01 -1.439373891779876402e+00 4.587374244544981661e-01 -1.439373891779876402e+00 -4.046542821198740869e-01
-4.050849430746065849e+00 -3.663898773468935999e-01 4.878905465632965566e+00 -3.663898773468935999e-01 7.373506063504567720e+00 -1.773064553699571277e+00 4.878905465632965566e+00 -1.773064553699571277e+00 1.154398022343568808e+00
-1.838534562551984886e+00 3.145614419497889003e+00 -1.088289776342174831e+00 3.145614419497889003e+00 -2.677142387313148131e+00 -4.932380194984449795e-01 -1.088289776342174831e+00 -4.932380194984449795e-01 -4.986982277804693275e+00
-2.370937676631784452e+00 2.397099434906810433e+00 -2.439050106577640431e+00 2.397099434906810433e+00 2.587801116122236511e+00 -8.086524325912636257e-01 -2.439050106577640431e+00 -8.086524325912636257e-01 3.383307056411138714e+00
-1.104764645552303026e+00 1.627946127554311673e+00 -6.684490289764694060e-01 1.627946127554311673e+00 3.279882814110482769e+00 2.466458514984786604e-02 -6.684490289764694060e-01 2.466458514984786604e-02 1.095638450805200836e+00
-3.560110676345029646e+00 -3.173714748552528331e+00 -1.534942448798222614e+00 -3.173714748552528331e+00 2.913844861920503515e+00 9.706328456192572673e+00 -1.534942448798222614e+00 9.706328456192572673e+00 5.320082421240751813e+00
5.077802827621279214e+00 1.026494104721274336e+00 -3.896121658367092788e+00 1.026494104721274336e+00 3.518160004674200536e+00 -4.681922815091593471e+00 -3.896121658367092788e+00 -4.681922815091593471e+00 2.500541571706970778e+00
-6.055582139859165380e+00 -1.186631980783660056e+00 7.619000702201614850e-01 -1.186631980783660056e+00 -7.219995117091874803e+00 -2.201256067500533486e+00 7.619000702201614850e-01 -2.201256067500533486e+00 -8.769778070812183302e+00
-1.722160667443512816e+00 3.451616325851539102e+00 -6.184852004276941706e+00 3.451616325851539102e+00 2.570353979105717279e+00 -2.132761888231923475e+00 -6.184852004276941706e+00 -2.132761888231923475e+00 1.138686651778949704e-01
1.809599156853820112e+00 5.160952601983765931e-01 1.025915515903974340e+00 5.160952601983765931e-01 1.286959281703469493e+01 2.368736653192777375e+00 1.025915515903974340e+00 2.368736653192777375e+00 5.422832637393420363e+00
1.043923347238288990e+01 1.287837305145804967e+00 -5.769484881787266817e-01 1.287837305145804967e+00 6.760327178663162684e+00 -3.004051033920781322e+00 -5.769484881787266817e-01 -3.004051033920781322e+00 1.278558410669601031e+01
2.554338402049528778e+00 5.433819860088950016e+00 -4.462333446843346429e+00 5.433819860088950016e+00 7.084360775683800071e+00 -6.584937224190097194e-01 -4.462333446843346429e+00 -6.584937224190097194e-01 5.891889223228628403e+00
5.294958543936965079e+00 -3.741811424309882561e+00 -1.351511899214638268e-01 -3.741811424309882561e+00 3.514610928939216450e+00 -2.642474776940496373e+00 -1.351511899214638268e-01 -2.642474776940496373e+00 2.426309222930705278e+00
6.620099915715695893e+00 2.339455287170866260e+00 -4.232216148053508320e+00 2.339455287170866260e+00 9.300958394092534220e+00 1.636565311482130358e+00 -4.232216148053508320e+00 1.636565311482130358e+00 -3.761405901266896112e+00
-1.593523075341549466e+00 1.067246441408644309e+01 2.530192757385300695e+00 1.067246441408644309e+01 3.925576004550877407e+00 2.315554200666527507e+00 2.530192757385300695e+00 2.315554200666527507e+00 -4.558182351020590772e+00
9.488200472070495994e-01 -1.481038251458639987e+00 1.512162750929475719e+00 -1.481038251458639987e+00 -1.678844048977202075e+00 -1.644265911102070987e+00 1.512162750929475719e+00 -1.644265911102070987e+00 2.716981508042491666e-02
-4.897760303277141958e+00 -2.896308252406464057e+00 -1.775897849454390665e+00 -2.896308252406464057e+00 -5.061220591414126169e-01 4.209895742338700231e+00 -1.775897849454390665e+00 4.209895742338700231e+00 -4.758147418145983742e-01
5.561270450390473741e+00 1.263512715486535321e+00 1.632008178941747323e+00 1.263512715486535321e+00 8.119796165323966974e+00 -2.523482320071254836e+00 1.632008178941747323e+00 -2.523482320071254836e+00 1.473583402965222611e+01
5.389942547304842790e+00 -3.941007027956598296e+00 2.307137821066422401e+00 -3.941007027956598296e+00 8.145540385277229234e+00 9.266117803558008958e+00 2.307137821066422401e+00 9.266117803558008958e+00 7.122929386948349872e+00