1.004199999999999982e+00 2.555410000000000181e+00 3.251630000000000020e+00 7.414049999999999585e+00 5.719030000000000058e+00 3.173840000000000217e+00 1.702420000000000044e+00 5.702549999999999564e+00 9.417569999999999553e+00 6.455490000000000173e+00 2.657169999999999810e+00 9.944490000000000052e+00 2.136089999999999822e+00 6.544870000000000410e+00 2.910029999999999895e+00 6.355789999999999829e+00 1.847359999999999891e+00 3.908929999999999794e+00 2.387539999999999996e+00 1.377119999999999900e+00 9.205470000000000041e+00 6.412880000000000358e+00 6.278999999999999915e+00 9.051709999999999923e+00 8.330709999999999837e+00 -1.240999999999999916e-02 1.146289999999999942e+01 2.144000000000000072e-02 8.481909999999999172e+00 5.533649999999999736e+00 4.540510000000000268e+00 4.387310000000000265e+00 6.866249999999999964e+00 4.077740000000000364e+00 3.838080000000000158e+00 7.248700000000000143e-01 2.216520000000000046e+00 6.338169999999999860e+00 1.213390000000000057e+01 6.352149999999999963e+00 2.009440000000000115e+00 1.592200000000000004e-01 2.090669999999999806e+00 2.230449999999999822e+00 6.227769999999999584e+00 6.393060000000000187e+00 6.481939999999999813e+00 5.729029999999999845e+00 2.776320000000000121e+00 6.588530000000000442e+00 6.759089999999999598e+00 6.333779999999999966e+00 2.312870000000000203e+00 6.991530000000000022e+00 2.329829999999999846e+00 2.064830000000000165e+00 1.764999999999999902e-02 5.922769999999999868e+00 6.230809999999999960e+00 3.055399999999999783e-01 8.323119999999999408e+00 8.558419999999999916e+00 2.288469999999999782e+00 8.364000000000000601e-02 4.512640000000000207e+00 6.326249999999999929e+00 4.202110000000000234e+00 8.519959999999999312e+00 1.190599999999999992e-01 4.290429999999999744e+00 4.084740000000000038e+00 3.865229999999999944e+00 4.345930000000000071e+00 2.508410000000000029e+00 5.253650000000000375e+00 4.258289999999999687e+00 5.929700000000000415e+00 4.887719999999999843e+00 2.283150000000000013e+00 4.036730000000000373e+00 1.113069999999999915e+01 5.840019999999999989e+00 4.233939999999999593e+00 1.143089999999999939e+01 1.963900000000000090e-01 5.951019999999999754e+00 4.919330000000000425e+00 8.407009999999999650e+00 2.737519999999999953e+00 5.220299999999999940e+00 2.429699999999999971e+00 8.427070000000000505e+00 1.142379999999999995e+01 5.779320000000000235e+00 8.278620000000000090e+00 1.131840000000000046e+01 4.253870000000000040e+00 1.502140000000000031e+00 1.452460000000000084e+00 3.987460000000000004e+00 6.756079999999999863e+00 1.270359999999999934e+00 1.863699999999999912e+00 4.491670000000000051e+00 7.361760000000000304e+00 6.994349999999999845e+00 4.731709999999999638e+00 7.390299999999999869e+00 8.438729999999999620e+00 6.832900000000000418e+00 1.109920000000000018e+00 8.474859999999999616e+00 1.733319999999999972e+00 1.157710000000000017e+00 1.750269999999999992e+00 1.423800000000000066e-01 7.353040000000000020e+00 6.737330000000000041e+00 8.508480000000000487e+00 7.323400000000000354e+00 8.470069999999999766e+00 1.846659999999999968e+00 9.575290000000000745e+00 -4.447999999999999871e-02 6.991539999999999644e+00 9.717420000000000613e+00 6.573710000000000164e+00 8.262710000000000221e+00 3.265420000000000211e+00 1.609469999999999956e+00 1.812999999999999889e-01 3.480690000000000062e+00 4.067389999999999617e+00 5.915960000000000107e+00 8.917279999999999873e+00 4.430979999999999919e+00 2.615040000000000031e+00 8.767129999999999868e+00 5.905179999999999652e+00 4.065990000000000215e+00 2.575200000000000156e+00 2.582040000000000113e+00 4.086159999999999570e+00 2.656930000000000014e+00 4.171000000000000263e+00 4.194209999999999994e+00 1.009769999999999968e+01 8.511670000000000513e+00 5.734999999999999820e-02 8.447279999999999234e+00
1.072519999999999918e+00 2.396949999999999914e+00 3.197140000000000093e+00 6.935500000000000220e+00 6.212920000000000442e+00 2.903360000000000163e+00 1.583869999999999889e+00 5.340279999999999916e+00 9.360889999999999489e+00 6.414399999999999658e+00 1.931929999999999925e+00 1.010420000000000051e+01 2.758789999999999853e+00 6.679229999999999556e+00 3.186890000000000001e+00 6.305609999999999715e+00 2.136140000000000150e+00 4.037550000000000416e+00 2.444589999999999819e+00 1.473740000000000050e+00 9.248710000000000875e+00 5.935900000000000176e+00 7.262410000000000032e+00 9.414300000000000779e+00 3.860000000000000236e-02 2.857700000000000240e-01 1.141050000000000075e+01 7.136000000000000676e-02 -3.699999999999999947e-04 5.544319999999999915e+00 4.480540000000000411e+00 4.375639999999999752e+00 7.020940000000000403e+00 4.191600000000000215e+00 4.328389999999999738e+00 7.178099999999999481e-01 2.087720000000000020e+00 6.172979999999999912e+00 1.206520000000000081e+01 5.930399999999999672e+00 2.255380000000000162e+00 5.536100000000000465e-01 2.222140000000000004e+00 2.021920000000000162e+00 6.208779999999999966e+00 6.659040000000000070e+00 6.654759999999999565e+00 5.927480000000000082e+00 2.438880000000000159e+00 6.406089999999999840e+00 6.713689999999999714e+00 6.309630000000000294e+00 2.407179999999999875e+00 6.982739999999999725e+00 2.015859999999999985e+00 1.892819999999999947e+00 1.231630000000000003e+01 6.620680000000000121e+00 6.205309999999999881e+00 1.183689999999999998e+01 8.437950000000000728e+00 8.429460000000000619e+00 2.325120000000000076e+00 -1.628999999999999893e-02 4.366530000000000022e+00 6.074499999999999567e+00 4.030850000000000044e+00 8.527329999999999188e+00 4.377999999999999947e-02 4.260609999999999786e+00 4.283000000000000362e+00 4.014269999999999783e+00 4.316169999999999618e+00 2.624289999999999790e+00 5.189079999999999693e+00 4.357210000000000250e+00 6.092649999999999899e+00 4.942789999999999573e+00 2.514139999999999819e+00 4.003320000000000434e+00 1.133220000000000027e+01 5.984790000000000276e+00 4.056009999999999671e+00 1.135790000000000077e+01 2.071699999999999930e-01 5.970729999999999649e+00 4.870790000000000397e+00 8.313710000000000377e+00 2.545069999999999943e+00 5.123739999999999739e+00 2.384100000000000108e+00 8.404659999999999798e+00 1.113109999999999999e+01 5.867320000000000313e+00 6.361999999999999600e-02 1.141039999999999921e+01 3.869810000000000194e+00 1.532119999999999926e+00 1.370370000000000088e+00 4.064009999999999678e+00 6.779410000000000380e+00 1.068899999999999961e+00 1.584829999999999961e+00 4.188299999999999912e+00 7.315210000000000434e+00 6.890859999999999985e+00 4.792379999999999640e+00 7.329559999999999853e+00 6.775000000000000466e-02 6.662320000000000242e+00 1.272329999999999961e+00 8.335010000000000474e+00 1.644749999999999934e+00 1.107450000000000045e+00 1.847159999999999913e+00 8.448069999999999524e+00 7.300500000000000433e+00 6.907420000000000115e+00 5.410000000000000225e-02 7.156819999999999737e+00 1.468200000000000061e-01 1.856009999999999938e+00 9.490520000000000067e+00 8.244389999999999219e+00 6.983649999999999913e+00 9.901030000000000442e+00 6.657309999999999839e+00 8.389950000000000685e+00 3.387739999999999974e+00 1.546240000000000059e+00 8.219999999999999529e-02 3.564620000000000122e+00 4.078649999999999665e+00 5.944390000000000285e+00 9.032370000000000232e+00 4.422570000000000334e+00 2.557249999999999801e+00 8.712099999999999511e+00 5.983050000000000423e+00 4.054850000000000065e+00 2.769979999999999887e+00 2.634920000000000151e+00 4.265990000000000393e+00 2.844079999999999941e+00 4.217660000000000409e+00 4.131470000000000198e+00 1.013620000000000054e+01 5.138999999999999818e-02 3.826999999999999846e-02 8.501279999999999504e+00
1.649199999999999999e+00 2.389170000000000016e+00 3.080940000000000012e+00 6.847409999999999997e+00 6.091700000000000337e+00 2.844899999999999984e+00 1.652740000000000098e+00 5.485529999999999795e+00 9.211479999999999890e+00 6.395080000000000098e+00 2.282770000000000188e+00 1.016140000000000043e+01 2.864710000000000090e+00 6.740330000000000155e+00 2.977570000000000050e+00 6.393530000000000157e+00 2.275619999999999976e+00 3.993879999999999875e+00 2.316019999999999968e+00 1.573509999999999964e+00 9.234600000000000364e+00 5.936399999999999899e+00 7.439420000000000144e+00 9.419669999999999987e+00 8.311999999999999944e-02 -7.108000000000000429e-02 1.158089999999999975e+01 8.418689999999999785e+00 8.428979999999999251e+00 5.638490000000000002e+00 4.188749999999999751e+00 4.309840000000000337e+00 7.075230000000000352e+00 4.011680000000000135e+00 4.097070000000000434e+00 6.222600000000000353e-01 2.087899999999999867e+00 6.244460000000000122e+00 1.216549999999999976e+01 6.147300000000000431e+00 2.269849999999999923e+00 5.869999999999999662e-01 2.125640000000000196e+00 1.946739999999999915e+00 6.212710000000000399e+00 6.519770000000000287e+00 6.338320000000000398e+00 6.197110000000000340e+00 2.011629999999999807e+00 6.531060000000000088e+00 6.202530000000000321e+00 6.290329999999999977e+00 2.134059999999999846e+00 7.108189999999999564e+00 2.084700000000000220e+00 1.883450000000000069e+00 1.213519999999999932e+01 6.231480000000000352e+00 6.391829999999999679e+00 1.198210000000000086e+01 2.697000000000000092e-02 6.035999999999999699e-02 2.275020000000000042e+00 -4.692999999999999949e-02 4.230500000000000149e+00 6.166540000000000354e+00 4.281810000000000116e+00 5.809999999999999887e-02 8.319999999999999618e-02 4.260600000000000165e+00 4.283800000000000274e+00 3.887919999999999821e+00 4.264230000000000409e+00 2.649160000000000181e+00 5.209509999999999863e+00 4.292340000000000266e+00 5.999880000000000102e+00 5.033739999999999881e+00 2.393780000000000019e+00 4.168800000000000061e+00 1.121950000000000003e+01 5.832729999999999748e+00 4.181519999999999904e+00 1.151829999999999998e+01 3.218000000000000027e-02 5.937770000000000437e+00 5.001059999999999839e+00 8.474930000000000518e+00 2.521939999999999849e+00 5.013849999999999696e+00 2.549179999999999779e+00 8.395580000000000709e+00 1.120190000000000019e+01 5.943660000000000387e+00 2.802899999999999836e-01 1.140240000000000009e+01 3.997180000000000177e+00 1.674909999999999899e+00 1.243999999999999995e+00 4.380959999999999965e+00 6.866780000000000328e+00 1.075320000000000054e+00 1.653559999999999919e+00 4.180659999999999599e+00 7.257159999999999833e+00 6.940019999999999634e+00 4.399639999999999773e+00 7.441729999999999734e+00 -4.009000000000000064e-02 6.879389999999999894e+00 1.125620000000000065e+00 1.320699999999999930e-01 1.752450000000000063e+00 1.105550000000000033e+00 1.625890000000000057e+00 8.464439999999999742e+00 7.352470000000000283e+00 6.613929999999999865e+00 8.418789999999999552e+00 7.165930000000000355e+00 8.211000000000000243e-02 1.625129999999999963e+00 9.828960000000000363e+00 8.207140000000000768e+00 6.670560000000000045e+00 9.764570000000000860e+00 6.799789999999999779e+00 8.500069999999999126e+00 3.373559999999999892e+00 1.649880000000000013e+00 2.443999999999999992e-02 3.596249999999999947e+00 4.047570000000000334e+00 5.922530000000000072e+00 8.928919999999999746e+00 4.416430000000000078e+00 2.507050000000000001e+00 8.871470000000000411e+00 5.763799999999999812e+00 4.071460000000000079e+00 2.623990000000000045e+00 2.592810000000000059e+00 4.442370000000000374e+00 2.764899999999999913e+00 4.268449999999999633e+00 4.243769999999999598e+00 1.007409999999999961e+01 8.366809999999999192e+00 8.404400000000000759e+00 8.533250000000000668e+00
1.733789999999999942e+00 2.351910000000000167e+00 3.248969999999999914e+00 7.095019999999999882e+00 6.296599999999999753e+00 3.207139999999999880e+00 1.768399999999999972e+00 5.780820000000000292e+00 9.322850000000000747e+00 6.333859999999999602e+00 2.388819999999999943e+00 9.883910000000000196e+00 3.060529999999999973e+00 6.845049999999999635e+00 3.012100000000000222e+00 6.522809999999999775e+00 2.240250000000000075e+00 3.871340000000000003e+00 2.313950000000000173e+00 1.352179999999999938e+00 9.237159999999999371e+00 5.758910000000000196e+00 7.316040000000000099e+00 9.497719999999999274e+00 8.328000000000000680e-02 8.444589999999999819e+00 1.166060000000000052e+01 8.321820000000000661e+00 8.373300000000000409e+00 5.594310000000000116e+00 4.369950000000000223e+00 4.238450000000000273e+00 6.939129999999999576e+00 4.135530000000000150e+00 4.288009999999999877e+00 6.780300000000000216e-01 2.252990000000000048e+00 6.277630000000000265e+00 5.512000000000000233e-02 6.266479999999999606e+00 2.254900000000000126e+00 5.404299999999999660e-01 2.004230000000000178e+00 2.024119999999999919e+00 6.238979999999999748e+00 6.477339999999999876e+00 6.158039999999999736e+00 6.520599999999999952e+00 2.243700000000000028e+00 6.289010000000000211e+00 6.197960000000000136e+00 5.929870000000000196e+00 2.108999999999999986e+00 6.966440000000000410e+00 2.080319999999999947e+00 2.027330000000000076e+00 1.222240000000000038e+01 6.629859999999999864e+00 6.445100000000000051e+00 1.190830000000000055e+01 5.797000000000000069e-02 2.861999999999999961e-02 2.306410000000000071e+00 8.431010000000000559e+00 4.181510000000000282e+00 6.206900000000000084e+00 4.268349999999999866e+00 1.082300000000000068e-01 3.402999999999999775e-02 4.222109999999999808e+00 4.270050000000000345e+00 3.888770000000000060e+00 4.141969999999999708e+00 2.485590000000000188e+00 4.902289999999999814e+00 4.376590000000000202e+00 5.978369999999999962e+00 4.994349999999999845e+00 2.334839999999999804e+00 4.231650000000000134e+00 1.123129999999999917e+01 5.878840000000000288e+00 4.220970000000000333e+00 1.139029999999999987e+01 8.415259999999999962e+00 5.862409999999999677e+00 5.078170000000000073e+00 8.507590000000000430e+00 2.538019999999999943e+00 4.975909999999999833e+00 2.662710000000000132e+00 8.429629999999999512e+00 1.114080000000000048e+01 5.990770000000000373e+00 2.741899999999999893e-01 1.142559999999999931e+01 4.031469999999999665e+00 1.656230000000000091e+00 1.279749999999999943e+00 4.428279999999999994e+00 6.945820000000000327e+00 1.052780000000000049e+00 1.649450000000000083e+00 4.249480000000000146e+00 7.267089999999999606e+00 6.932150000000000034e+00 4.095320000000000071e+00 7.497930000000000206e+00 9.117000000000000104e-02 6.944029999999999703e+00 1.127669999999999950e+00 1.844999999999999973e-01 1.816689999999999916e+00 1.270019999999999927e+00 1.538319999999999910e+00 8.365729999999999222e+00 7.303950000000000387e+00 6.580199999999999605e+00 8.428779999999999717e+00 7.351399999999999935e+00 2.059000000000000066e-02 1.631199999999999983e+00 9.726380000000000692e+00 8.287419999999999121e+00 6.642669999999999852e+00 9.841580000000000439e+00 6.751050000000000217e+00 8.532709999999999795e+00 3.262420000000000098e+00 1.630260000000000042e+00 -2.205999999999999975e-02 3.604589999999999961e+00 4.093060000000000365e+00 5.900859999999999772e+00 8.805590000000000472e+00 4.226119999999999877e+00 2.485479999999999912e+00 8.811529999999999418e+00 5.897380000000000067e+00 4.305939999999999657e+00 2.672130000000000116e+00 2.517689999999999984e+00 4.545700000000000074e+00 2.803080000000000016e+00 4.138160000000000061e+00 4.204629999999999868e+00 1.012759999999999927e+01 8.370660000000000878e+00 8.465790000000000148e+00 8.607409999999999783e+00
1.957589999999999941e+00 2.226510000000000211e+00 2.876430000000000042e+00 7.188010000000000232e+00 6.072239999999999860e+00 3.075110000000000010e+00 1.606789999999999941e+00 5.712290000000000312e+00 9.391370000000000218e+00 6.573039999999999772e+00 2.289979999999999905e+00 9.513749999999999929e+00 3.121760000000000090e+00 6.941480000000000317e+00 3.073090000000000099e+00 6.533450000000000202e+00 2.248240000000000016e+00 3.880619999999999958e+00 2.547289999999999832e+00 9.902800000000000491e-01 9.195840000000000458e+00 5.761149999999999771e+00 7.356060000000000265e+00 9.452439999999999287e+00 8.378790000000000404e+00 4.342000000000000026e-02 1.163719999999999999e+01 8.343819999999999126e+00 1.884599999999999886e-01 5.527350000000000207e+00 4.119100000000000428e+00 4.313270000000000159e+00 6.927330000000000432e+00 4.248479999999999812e+00 4.293820000000000192e+00 5.500199999999999534e-01 2.206850000000000200e+00 6.345519999999999605e+00 1.036200000000000038e-01 6.319709999999999717e+00 2.170030000000000125e+00 4.842699999999999783e-01 2.001329999999999831e+00 2.062510000000000066e+00 6.158290000000000042e+00 6.359829999999999650e+00 6.307660000000000267e+00 6.626870000000000260e+00 2.007010000000000183e+00 6.154690000000000438e+00 6.251929999999999765e+00 5.810120000000000395e+00 2.075159999999999894e+00 6.782770000000000188e+00 1.976169999999999982e+00 2.123969999999999914e+00 1.209379999999999988e+01 6.517220000000000013e+00 6.331839999999999691e+00 1.209820000000000029e+01 -4.093000000000000110e-02 8.533659999999999357e+00 2.375789999999999846e+00 8.402319999999999567e+00 4.161229999999999762e+00 6.274269999999999570e+00 4.274860000000000326e+00 7.975000000000000144e-02 2.623999999999999944e-02 4.278579999999999828e+00 4.307549999999999990e+00 3.858519999999999950e+00 4.215049999999999741e+00 2.569869999999999877e+00 4.988299999999999734e+00 4.291619999999999990e+00 5.986629999999999896e+00 5.073879999999999946e+00 2.420609999999999928e+00 4.198220000000000063e+00 1.115540000000000020e+01 6.035260000000000069e+00 4.133029999999999760e+00 1.118859999999999921e+01 8.281159999999999854e+00 5.851169999999999760e+00 5.175709999999999589e+00 8.514670000000000627e+00 2.531810000000000116e+00 5.002049999999999663e+00 2.558640000000000025e+00 8.428480000000000416e+00 1.123780000000000001e+01 5.955119999999999969e+00 2.384900000000000075e-01 1.138940000000000019e+01 4.083649999999999558e+00 1.683019999999999960e+00 1.326019999999999976e+00 4.415960000000000107e+00 6.892780000000000129e+00 1.045009999999999994e+00 1.479559999999999986e+00 4.091350000000000264e+00 7.420560000000000045e+00 6.750309999999999810e+00 4.052889999999999660e+00 7.458359999999999879e+00 1.126700000000000063e-01 6.844509999999999650e+00 1.208550000000000013e+00 1.262900000000000134e-01 1.678549999999999986e+00 1.219780000000000086e+00 1.673149999999999915e+00 8.385189999999999699e+00 7.372779999999999667e+00 6.746879999999999988e+00 9.173000000000000598e-02 7.340849999999999653e+00 1.799900000000000111e-01 1.763530000000000042e+00 9.712550000000000239e+00 8.147380000000000067e+00 6.939840000000000231e+00 9.902480000000000615e+00 6.777969999999999828e+00 8.400819999999999510e+00 3.382179999999999964e+00 1.536440000000000028e+00 2.000000000000000164e-05 3.677880000000000038e+00 4.116740000000000066e+00 5.950849999999999973e+00 8.827339999999999520e+00 4.234340000000000437e+00 2.482019999999999893e+00 8.697169999999999845e+00 5.917790000000000106e+00 4.237800000000000011e+00 2.579470000000000152e+00 2.585440000000000182e+00 4.584450000000000358e+00 2.750879999999999992e+00 4.282530000000000392e+00 4.191480000000000317e+00 9.952209999999999113e+00 8.503059999999999619e+00 -3.583999999999999686e-02 8.585409999999999542e+00
2.201130000000000031e+00 2.064319999999999933e+00 2.784120000000000150e+00 7.176820000000000199e+00 6.033750000000000391e+00 3.169700000000000184e+00 1.883159999999999945e+00 5.845819999999999794e+00 9.171670000000000655e+00 6.795029999999999681e+00 2.964399999999999924e+00 9.534369999999999123e+00 2.763939999999999841e+00 6.677369999999999806e+00 2.852079999999999949e+00 6.263169999999999682e+00 2.145010000000000083e+00 3.579559999999999853e+00 2.608089999999999797e+00 9.866599999999999815e-01 9.297010000000000218e+00 6.087780000000000413e+00 7.261409999999999698e+00 9.411339999999999151e+00 -6.600999999999999923e-02 8.398770000000000735e+00 1.167389999999999972e+01 8.221869999999999123e+00 1.524199999999999999e-01 5.566539999999999822e+00 3.953570000000000029e+00 4.248540000000000205e+00 6.924030000000000129e+00 4.239919999999999689e+00 4.208580000000000432e+00 7.451499999999999790e-01 2.002800000000000136e+00 6.298600000000000421e+00 1.835199999999999887e-01 6.347349999999999604e+00 2.051250000000000018e+00 1.892199999999999993e-01 1.854340000000000099e+00 2.153329999999999966e+00 6.142870000000000275e+00 6.357029999999999959e+00 6.471110000000000362e+00 6.491789999999999949e+00 2.110529999999999795e+00 6.298099999999999810e+00 6.092489999999999739e+00 6.091940000000000133e+00 2.134640000000000093e+00 6.760650000000000048e+00 1.823569999999999913e+00 2.014330000000000176e+00 1.206520000000000081e+01 6.394849999999999923e+00 6.476530000000000342e+00 1.217420000000000080e+01 -6.568000000000000227e-02 8.515900000000000247e+00 2.276940000000000186e+00 8.482219999999999871e+00 4.237099999999999866e+00 6.189169999999999838e+00 4.210709999999999731e+00 8.547100000000000364e+00 1.032900000000000068e-01 4.200090000000000323e+00 4.295589999999999797e+00 3.827550000000000008e+00 4.053980000000000139e+00 2.506060000000000176e+00 4.945330000000000226e+00 4.214380000000000237e+00 5.974969999999999892e+00 5.031270000000000131e+00 2.500840000000000174e+00 4.221219999999999750e+00 1.127619999999999933e+01 5.911109999999999864e+00 4.347940000000000360e+00 1.133760000000000012e+01 8.442690000000000694e+00 6.044579999999999842e+00 5.212509999999999977e+00 8.407280000000000086e+00 2.604140000000000121e+00 4.984729999999999883e+00 2.490779999999999994e+00 8.199699999999999989e+00 1.130349999999999966e+01 5.841910000000000380e+00 1.937599999999999878e-01 1.125660000000000061e+01 4.088300000000000267e+00 1.698800000000000088e+00 1.226599999999999913e+00 4.537370000000000125e+00 6.860179999999999723e+00 1.225060000000000038e+00 1.645569999999999977e+00 4.191040000000000099e+00 7.328540000000000276e+00 6.827869999999999884e+00 4.197580000000000311e+00 7.421719999999999651e+00 8.412869999999999848e+00 6.784029999999999561e+00 1.155540000000000012e+00 3.626999999999999669e-02 1.700250000000000039e+00 1.262520000000000087e+00 1.699379999999999891e+00 7.202999999999999681e-02 7.357380000000000031e+00 6.729429999999999801e+00 5.816000000000000336e-02 7.500869999999999926e+00 1.703699999999999937e-01 1.541060000000000096e+00 9.991020000000000678e+00 8.362030000000000740e+00 6.743330000000000268e+00 9.751870000000000260e+00 6.879199999999999982e+00 8.335250000000000270e+00 3.514569999999999972e+00 1.574929999999999941e+00 8.413190000000000168e+00 3.506920000000000037e+00 4.164670000000000094e+00 6.032259999999999955e+00 8.751469999999999416e+00 4.412790000000000212e+00 2.607899999999999885e+00 8.767129999999999868e+00 5.802360000000000184e+00 4.226449999999999818e+00 2.629919999999999813e+00 2.530479999999999841e+00 4.405549999999999855e+00 2.637919999999999821e+00 4.197429999999999772e+00 4.298060000000000436e+00 1.003389999999999915e+01 -1.201999999999999943e-02 -2.273999999999999980e-02 8.597509999999999764e+00
2.072439999999999838e+00 1.878330000000000055e+00 2.180989999999999984e+00 6.791129999999999889e+00 6.167880000000000251e+00 3.021959999999999980e+00 1.640509999999999913e+00 5.617350000000000065e+00 9.188499999999999446e+00 6.776440000000000019e+00 3.083790000000000031e+00 9.419460000000000832e+00 2.765629999999999811e+00 6.710449999999999804e+00 3.158479999999999954e+00 6.394910000000000316e+00 2.229649999999999910e+00 3.824450000000000127e+00 2.535590000000000011e+00 1.428960000000000008e+00 9.293319999999999581e+00 5.971759999999999735e+00 7.088210000000000122e+00 9.197319999999999496e+00 -4.861000000000000043e-02 8.458360000000000767e+00 1.164809999999999945e+01 8.443160000000000664e+00 8.346989999999999910e+00 5.505429999999999602e+00 4.320549999999999891e+00 4.257839999999999847e+00 7.075309999999999988e+00 4.078509999999999636e+00 4.285899999999999821e+00 6.811500000000000332e-01 2.043340000000000156e+00 6.336619999999999919e+00 2.067599999999999993e-01 6.343659999999999854e+00 2.193509999999999849e+00 3.372200000000000197e-01 1.961689999999999934e+00 2.085890000000000022e+00 6.038230000000000430e+00 6.533360000000000056e+00 6.693649999999999878e+00 5.927010000000000112e+00 2.413769999999999971e+00 6.321500000000000341e+00 6.503930000000000433e+00 6.290840000000000209e+00 2.266700000000000159e+00 6.878510000000000346e+00 1.799299999999999899e+00 1.964890000000000025e+00 1.191290000000000049e+01 6.454290000000000305e+00 6.385830000000000339e+00 1.227130000000000010e+01 8.441250000000000142e+00 8.554449999999999221e+00 2.437780000000000058e+00 8.407170000000000698e+00 4.321320000000000050e+00 6.119170000000000442e+00 4.111889999999999823e+00 8.468859999999999388e+00 1.241140000000000043e+01 4.125409999999999577e+00 4.135550000000000281e+00 3.906789999999999985e+00 4.327930000000000277e+00 2.457570000000000032e+00 4.982999999999999652e+00 4.292559999999999931e+00 5.839760000000000062e+00 5.047419999999999796e+00 2.492649999999999810e+00 4.127860000000000085e+00 1.126810000000000045e+01 5.999489999999999768e+00 4.313259999999999650e+00 1.133789999999999942e+01 8.161000000000000199e-02 6.015579999999999927e+00 4.951520000000000366e+00 8.395509999999999806e+00 2.652810000000000112e+00 4.947020000000000195e+00 2.483070000000000110e+00 8.267060000000000741e+00 1.120829999999999949e+01 5.918099999999999916e+00 7.130000000000000053e-03 1.129330000000000034e+01 4.131990000000000052e+00 1.708630000000000093e+00 1.056699999999999973e+00 4.267030000000000101e+00 6.866539999999999644e+00 1.234969999999999901e+00 1.596980000000000066e+00 4.129870000000000374e+00 7.295029999999999681e+00 6.903660000000000352e+00 4.539380000000000415e+00 7.416509999999999714e+00 8.497059999999999391e+00 6.857840000000000380e+00 1.284759999999999902e+00 8.512190000000000367e+00 1.664900000000000047e+00 1.221330000000000027e+00 1.639100000000000001e+00 5.516999999999999682e-02 7.357750000000000234e+00 6.818859999999999921e+00 -3.978999999999999898e-02 7.321869999999999656e+00 1.907699999999999951e-01 1.705740000000000034e+00 9.855480000000000018e+00 8.360129999999999839e+00 6.843930000000000291e+00 9.825029999999999930e+00 6.700549999999999784e+00 8.498739999999999739e+00 3.490000000000000213e+00 1.505649999999999933e+00 1.119700000000000001e-01 3.757169999999999899e+00 4.016280000000000072e+00 5.933290000000000397e+00 8.813879999999999271e+00 4.565419999999999590e+00 2.377810000000000201e+00 8.934229999999999450e+00 5.743439999999999657e+00 4.159309999999999619e+00 2.559349999999999792e+00 2.413240000000000052e+00 4.304400000000000226e+00 2.876430000000000042e+00 4.275159999999999627e+00 4.218370000000000175e+00 1.008159999999999989e+01 -4.020000000000000136e-03 -5.790000000000000008e-03 8.655129999999999768e+00