-2.274523706800000014e+02
-2.282467205000000092e+02
-2.287343364500000007e+02
-2.290167300900000100e+02
-2.290190737300000023e+02
-2.286568992500000093e+02
-2.286494246700000019e+02
-2.285822929900000133e+02
-2.284203292699999963e+02
-2.285769401500000129e+02
-2.289414607699999920e+02
-2.287135973599999943e+02
-2.286723696299999915e+02
-2.280141454900000042e+02
-2.281634624600000052e+02
-2.282084503499999926e+02
-2.284089019300000132e+02
-2.283166269600000078e+02
-2.284103136800000016e+02
-2.280674774599999921e+02
-2.278661883499999874e+02
-2.282185874600000091e+02
-2.282446658000000070e+02
-2.284974772200000075e+02
-2.281774988100000030e+02
-2.283435989699999880e+02
-2.285152589100000000e+02
-2.279174728899999991e+02
-2.283543730000000096e+02
-2.277178007999999920e+02
-2.280928792800000053e+02
-2.273936009500000068e+02
-2.283107459599999913e+02
-2.280948556699999870e+02
-2.281679681100000039e+02
-2.277664778699999886e+02
-2.279941694199999915e+02
-2.276743665200000066e+02
-2.282063965600000017e+02
-2.283225098700000046e+02
-2.281743834799999888e+02
-2.275837141099999883e+02
-2.276532281899999930e+02
-2.278045109100000047e+02
-2.279425273900000093e+02
-2.279424561700000140e+02
-2.277300628799999913e+02
-2.278808211699999902e+02
-2.272673546800000111e+02
-2.273681137000000092e+02
-2.272779431600000066e+02
-2.275357060800000113e+02
-2.282142598099999873e+02
-2.277940174599999921e+02
-2.275293216400000063e+02
-2.273296428200000037e+02
-2.277178472299999896e+02
-2.274810934799999984e+02
-2.278425927300000069e+02
-2.280455857599999945e+02
-2.271598378299999865e+02
-2.276878988999999933e+02
-2.275599245399999973e+02
-2.277370419599999991e+02
-2.273673739900000044e+02
-2.274109249500000089e+02
-2.272220182599999987e+02
-2.265287705800000140e+02
-2.276972557699999982e+02
-2.276186049199999957e+02
-2.278214399299999968e+02
-2.273096219800000028e+02
-2.270925146300000108e+02
-2.269288096800000005e+02
-2.271688920100000075e+02
-2.273547109200000023e+02
-2.273575627499999996e+02
-2.275190531700000065e+02
-2.274445754099999988e+02
-2.265260031500000082e+02
-2.271175196400000118e+02
-2.271092855699999973e+02
-2.271456866700000035e+02
-2.276017678499999874e+02
-2.269122618000000102e+02
-2.261575994099999889e+02
-2.269273935399999971e+02
-2.265978695599999924e+02
-2.269245839699999863e+02
-2.263344244300000128e+02
-2.271335484599999859e+02
-2.269656971599999906e+02
-2.261817327299999931e+02
-2.259275603300000057e+02
-2.262434187599999973e+02
-2.263620664100000113e+02
-2.266645759699999871e+02
-2.270445832100000132e+02
-2.254227366099999870e+02
-2.263075989399999912e+02
-2.263599386500000037e+02
-2.263106265099999916e+02
-2.262774722000000054e+02
-2.266900019400000019e+02
-2.255078737700000033e+02
-2.257171790499999986e+02
-2.258642710800000089e+02
-2.256192808000000127e+02
-2.259247919599999932e+02
-2.258467683499999907e+02
-2.266521785900000054e+02
-2.260375603200000114e+02
-2.252909115900000074e+02
-2.254070347100000049e+02
-2.259026435499999934e+02
-2.259768458300000020e+02
-2.258606896800000072e+02
-2.246821550100000024e+02
-2.253457639199999960e+02
-2.256486792100000116e+02
-2.257583425500000089e+02
-2.255471962999999960e+02
-2.245135822000000019e+02
-2.244412702099999990e+02
-2.249491658299999983e+02
-2.252314722300000085e+02
-2.251026763300000084e+02
-2.252136580300000048e+02
-2.245360637999999938e+02
-2.252945724299999881e+02
-2.244487037199999975e+02
-2.249864180499999975e+02
-2.246730291899999941e+02
-2.244197796900000128e+02
-2.253372141399999862e+02
-2.240643709999999942e+02
-2.244271234699999980e+02
-2.243651998900000137e+02
-2.247794027299999868e+02
-2.245474101000000076e+02
-2.251935410300000058e+02
-2.244378683399999943e+02
-2.240699017299999980e+02
-2.244904478500000096e+02
-2.242502532800000097e+02
-2.248372939500000030e+02
-2.247434906199999887e+02
-2.246622851500000024e+02
-2.238966826099999992e+02
-2.246779345100000000e+02
-2.248229257000000132e+02
-2.259177678899999933e+02
-2.241398077000000058e+02
-2.244133684800000026e+02
-2.242828668699999923e+02
-2.240211834899999985e+02
-2.238712203000000045e+02
-2.248499973499999953e+02
-2.249434991699999955e+02
-2.236161155499999893e+02
-2.235490732000000094e+02
-2.236431423200000097e+02
-2.234810054799999932e+02
-2.247242807400000117e+02
-2.251560783399999934e+02
-2.246715764399999955e+02
-2.241762791499999992e+02
-2.237788536099999988e+02
-2.232589859800000056e+02
-2.223850001700000121e+02
-2.230221135500000003e+02
-2.248093639699999926e+02
-2.251615000099999975e+02
-2.250193270700000028e+02
-2.235670393499999875e+02
-2.228351911299999983e+02
-2.228115103099999885e+02
-2.232175756700000022e+02
-2.223658143199999984e+02
-2.237917372800000066e+02
-2.225965187200000059e+02
-2.236195960199999888e+02
-2.229794393900000102e+02
-2.225807128200000022e+02
-2.219191473600000108e+02
-2.223417377899999963e+02
-2.240522705500000029e+02
-2.249198361599999885e+02
-2.247278236900000081e+02
-2.234415802599999950e+02
-2.216268216400000028e+02
-2.225699698699999942e+02
-2.218225063200000022e+02
-2.226422589899999878e+02
-2.234142237300000033e+02
-2.244788328999999862e+02
-2.224116852999999878e+02
-2.238198913699999935e+02
-2.228170432100000085e+02
-2.235993146600000046e+02
