1.031289999999999984e-01 -2.782419999999999893e-01 -2.182379999999999876e-01 -2.842399999999999927e-01 2.742149999999999865e-01 -5.956639999999999713e-01 3.612850000000000228e-01 -3.987859999999999738e-01 -1.020889999999999992e-01 -1.193000000000000033e-01 -2.692700000000000093e-01 -3.761099999999999999e-01 1.379549999999999943e-01 -1.517479999999999940e-01 2.015199999999999977e-02 -1.849079999999999890e-01 6.071410000000000418e-01 -2.776500000000000148e-02 8.750700000000000145e-02 2.202349999999999863e-01 4.822739999999999805e-01 -9.449299999999999367e-02 4.662560000000000038e-01 1.845799999999999941e-01 1.331600000000000006e-01 1.561750000000000083e-01 1.140940000000000010e-01 3.429800000000000210e-02 -1.881000000000000033e-02 1.749900000000000067e-02 -2.434959999999999902e-01 -2.690199999999999883e-02 2.916509999999999936e-01 1.622490000000000043e-01 4.252299999999999969e-01 -1.234259999999999941e-01 -3.693719999999999781e-01 -6.318559999999999732e-01 2.444209999999999994e-01 -3.476879999999999971e-01 -3.270300000000000290e-02 1.435349999999999959e-01 -1.054960000000000064e-01 5.284500000000000308e-02 8.656700000000000506e-02 3.598640000000000172e-01 3.318380000000000218e-01 2.644099999999999784e-01 -1.990429999999999977e-01 1.384970000000000090e-01 3.666699999999999821e-02 2.003469999999999973e-01 -1.424420000000000130e-01 1.385180000000000022e-01 -4.379689999999999972e-01 -1.493599999999999928e-01 1.146719999999999962e-01 6.852009999999999490e-01 2.610609999999999875e-01 -9.461899999999999478e-02 1.177745000000000042e+00 -3.369639999999999858e-01 6.259299999999999586e-02 9.717010000000000369e-01 -7.722980000000000400e-01 -1.004691999999999918e+00 -3.427810000000000024e-01 -6.428519999999999790e-01 7.589519999999999600e-01 -3.409639999999999893e-01 6.715649999999999675e-01 5.888600000000000084e-02 1.637170000000000014e-01 4.249020000000000019e-01 -7.564689999999999470e-01 1.760000000000000106e-02 -4.846119999999999872e-01 -3.525059999999999860e-01 5.238329999999999931e-01 6.770099999999999729e-02 3.164759999999999796e-01 8.772099999999999342e-02 -1.990629999999999900e-01 1.345959999999999934e-01 3.403880000000000239e-01 9.596179999999999710e-01 1.609319999999999917e-01 -3.721700000000000008e-02 -2.015220000000000067e-01 6.299449999999999772e-01 1.045689999999999953e-01 7.986630000000000118e-01 -8.540849999999999831e-01 -1.997220000000000106e-01 3.373669999999999725e-01 2.207689999999999930e-01 1.922230000000000050e-01 -1.382680000000000020e-01 -7.659759999999999902e-01 -8.296399999999999608e-02 5.267089999999999828e-01 -9.847300000000000497e-02 -9.481579999999999453e-01 -4.730230000000000268e-01 -2.490300000000000014e-01 -9.834009999999999696e-01 -3.281049999999999800e-01 6.528939999999999744e-01 3.785540000000000016e-01 1.107080000000000009e-01 2.952420000000000044e-01 -7.478999999999999537e-02 -2.027039999999999953e-01 1.737960000000000060e-01 6.952700000000000546e-01 -3.026030000000000109e-01 -7.833149999999999835e-01 -1.121634000000000020e+00 -3.430520000000000236e-01 -1.272005999999999970e+00 6.891270000000000451e-01 -2.469610000000000138e-01 1.943159999999999887e-01 -2.682039999999999980e-01 -3.884759999999999880e-01 7.780019999999999714e-01 3.736240000000000117e-01 -9.363000000000000489e-02 2.298459999999999948e-01 -1.414082000000000061e+00 -2.096900000000000153e-02 -4.445350000000000135e-01 3.531759999999999899e-01 8.459489999999999510e-01 -2.063379999999999936e-01 1.448639999999999928e-01 -8.688160000000000327e-01 -3.773529999999999940e-01 -3.536610000000000031e-01 -3.905129999999999990e-01 5.864740000000000508e-01 6.557039999999999536e-01 1.927889999999999882e-01 4.444089999999999985e-01 -7.056200000000000250e-01 9.643500000000000683e-02 2.321199999999999930e-01 1.243930000000000036e-01 5.686499999999999888e-01 6.334009999999999918e-01
2.012269999999999892e-01 2.227909999999999890e-01 -3.747500000000000275e-01 -1.268599999999999936e-02 -6.414029999999999454e-01 9.853199999999999459e-02 -1.783879999999999910e-01 2.177040000000000086e-01 1.575499999999999956e-01 -2.394479999999999942e-01 4.932099999999999818e-01 -2.860059999999999825e-01 -1.698969999999999925e-01 2.713999999999999833e-03 -1.616299999999999959e-01 -1.523700000000000054e-02 -2.534600000000000186e-01 -3.380179999999999851e-01 1.685319999999999874e-01 -2.020679999999999976e-01 -4.644100000000000311e-02 -1.410999999999999928e-02 1.821109999999999951e-01 -5.525679999999999481e-01 -1.325109999999999899e-01 -1.466300000000000103e-01 1.394789999999999919e-01 1.890920000000000101e-01 -1.159599999999999936e-01 -4.845000000000000001e-02 -1.051689999999999986e-01 1.190750000000000003e-01 1.887860000000000094e-01 1.187470000000000053e-01 -1.118999999999999995e-01 1.555960000000000121e-01 -1.305790000000000006e-01 4.037339999999999818e-01 2.599299999999999944e-01 3.953349999999999920e-01 -6.727099999999999747e-02 1.089029999999999998e-01 -2.524410000000000265e-01 1.334279999999999911e-01 1.693300000000000083e-01 -1.352049999999999919e-01 -1.592760000000000009e-01 -1.102309999999999957e-01 1.171610000000000013e-01 -6.262809999999999766e-01 -2.831810000000000160e-01 1.273029999999999995e-01 1.307200000000000029e-02 1.592139999999999944e-01 -1.626160000000000105e-01 7.947500000000000397e-02 1.718770000000000020e-01 1.636120000000000074e-01 5.171879999999999811e-01 3.146399999999999753e-01 -5.801420000000000465e-01 7.027440000000000353e-01 -5.823209999999999775e-01 -1.297069000000000027e+00 5.781359999999999832e-01 9.812189999999999523e-01 5.587000000000000299e-02 8.074829999999999508e-01 1.093250000000000055e-01 1.101216999999999890e+00 -3.275790000000000091e-01 -1.177732999999999919e+00 2.560399999999999829e-02 -2.240880000000000094e-01 5.098329999999999806e-01 -5.913100000000000300e-02 1.130179999999999935e-01 4.282380000000000075e-01 -9.168650000000000411e-01 -1.815720000000000112e-01 1.428600000000000009e-02 -1.991989999999999872e-01 -3.807860000000000134e-01 1.574069999999999914e-01 1.559810000000000085e-01 -1.237899999999999938e-02 -2.804130000000000233e-01 4.020830000000000237e-01 2.652700000000000058e-01 3.547279999999999878e-01 5.456250000000000266e-01 -2.048900000000000027e-02 1.948149999999999882e-01 -5.417629999999999946e-01 -4.948000000000000176e-01 4.355490000000000195e-01 1.207109999999999989e-01 -4.973920000000000008e-01 -4.720969999999999889e-01 2.005369999999999930e-01 -1.755699999999999969e-02 8.408499999999999308e-02 6.111360000000000126e-01 -2.345569999999999877e-01 -3.135749999999999926e-01 7.243469999999999631e-01 -7.381999999999999673e-01 -4.512809999999999877e-01 -1.757140000000000091e-01 4.313569999999999904e-01 -9.547500000000000431e-02 6.428230000000000333e-01 -6.905930000000000124e-01 6.117010000000000502e-01 -8.904779999999999918e-01 7.771000000000000130e-01 6.812030000000000030e-01 -8.226700000000000679e-02 -9.999900000000000455e-02 7.306399999999999562e-01 -3.321370000000000156e-01 3.186370000000000036e-01 5.011780000000000124e-01 6.111520000000000286e-01 -7.517999999999999683e-02 -3.571630000000000082e-01 4.854249999999999954e-01 3.793199999999999905e-01 -1.205699999999999966e-01 6.871999999999999637e-03 1.095079999999999942e-01 -9.359499999999999764e-02 -3.417549999999999755e-01 -2.027730000000000088e-01 -1.277020000000000099e-01 1.521699999999999962e-02 -2.219490000000000074e-01 2.039759999999999907e-01 -8.494920000000000249e-01 3.758770000000000167e-01 2.363619999999999888e-01 -4.374399999999999955e-01 2.829999999999999942e-04 -3.227880000000000194e-01 1.111264999999999947e+00 2.511999999999999789e-01 -7.317679999999999740e-01 -4.513299999999999951e-02 -7.502910000000000412e-01 -8.306249999999999467e-01
-1.646360000000000046e-01 -2.767060000000000075e-01 1.827399999999999858e-02 3.050820000000000198e-01 4.428159999999999874e-01 1.634690000000000032e-01 -7.907400000000000539e-02 7.698399999999999688e-02 2.422890000000000044e-01 1.037870000000000043e-01 1.534649999999999903e-01 -1.248719999999999969e-01 6.676200000000000190e-02 2.297440000000000038e-01 6.068699999999999789e-02 -1.009649999999999992e-01 -3.747249999999999748e-01 -2.018500000000000155e-02 8.710800000000000487e-02 -1.955040000000000111e-01 -4.384400000000000103e-02 -3.770220000000000238e-01 -1.832809999999999995e-01 -4.450680000000000192e-01 -1.056180000000000035e-01 -1.829770000000000008e-01 -6.609000000000000291e-03 8.720999999999999586e-02 1.498549999999999882e-01 -4.090130000000000154e-01 1.696670000000000122e-01 2.185600000000000043e-02 -4.991099999999999703e-02 -3.400000000000000244e-02 1.538779999999999870e-01 9.333700000000000330e-02 -5.692400000000000237e-02 2.992670000000000052e-01 2.309019999999999961e-01 3.944570000000000021e-01 2.218399999999999886e-02 2.500199999999999992e-02 -1.938620000000000065e-01 2.037440000000000084e-01 -7.911200000000000176e-02 -1.831170000000000020e-01 -1.832940000000000125e-01 -1.458639999999999937e-01 2.267909999999999926e-01 -5.341430000000000344e-01 -1.288920000000000066e-01 -1.537380000000000135e-01 2.485469999999999902e-01 1.485599999999999941e-02 -1.235009999999999997e-01 3.352120000000000100e-01 5.899999999999999754e-05 3.908349999999999880e-01 3.254690000000000083e-01 1.981050000000000033e-01 1.199100000000000027e-01 -8.662300000000000555e-01 3.508780000000000232e-01 -4.460060000000000136e-01 4.555489999999999817e-01 -9.169800000000000173e-02 -7.383769999999999500e-01 -7.306999999999999607e-02 -6.715830000000000410e-01 -1.034529000000000032e+00 -2.029870000000000008e-01 1.492852000000000068e+00 1.909170000000000034e-01 1.117100000000000037e-01 -6.360949999999999660e-01 2.729039999999999799e-01 1.563380000000000047e-01 -2.163640000000000008e-01 9.263000000000000400e-02 -5.487170000000000103e-01 -2.799699999999999966e-01 4.262190000000000145e-01 -2.882560000000000122e-01 -1.548279999999999934e-01 -2.462399999999999867e-01 -3.770339999999999803e-01 -3.725229999999999930e-01 2.263680000000000136e-01 1.632010000000000127e-01 2.149969999999999937e-01 3.737770000000000259e-01 -6.412099999999999744e-02 -1.017460000000000031e-01 1.744519999999999960e-01 -3.588839999999999808e-01 1.108620000000000022e-01 -1.765210000000000112e-01 -9.039099999999999913e-02 6.034749999999999837e-01 -5.184699999999999726e-02 7.509000000000000050e-03 1.171819999999999945e-01 4.308989999999999765e-01 -2.006010000000000015e-01 1.445440000000000058e-01 4.165000000000000299e-03 -3.270549999999999846e-01 -1.129610000000000058e-01 1.358389999999999875e-01 3.027029999999999998e-01 5.410800000000000332e-02 -2.608929999999999860e-01 -7.538000000000000429e-03 3.591329999999999800e-01 -1.911569999999999936e-01 1.908870000000000011e-01 4.485819999999999808e-01 4.901119999999999921e-01 2.678039999999999865e-01 1.100683999999999996e+00 -6.983789999999999720e-01 -7.927910000000000235e-01 -8.050190000000000401e-01 3.180899999999999700e-02 5.290740000000000443e-01 9.903999999999999609e-03 1.109149999999999997e-01 4.057870000000000088e-01 -1.617580000000000129e-01 -4.199209999999999887e-01 1.863180000000000114e-01 -3.542040000000000188e-01 4.403819999999999957e-01 9.708499999999999908e-01 -4.850840000000000152e-01 9.186199999999999921e-02 -1.814520000000000022e-01 -3.294560000000000266e-01 1.292175999999999991e+00 3.555599999999999733e-02 -6.124300000000000299e-01 -4.626279999999999837e-01 -1.566410000000000025e-01 -3.053679999999999728e-01 -6.695489999999999498e-01 -5.754650000000000043e-01 8.412300000000000333e-01 2.314700000000000091e-01 5.955580000000000318e-01 2.490459999999999896e-01
2.634000000000000057e-03 -1.892000000000000019e-03 -1.674940000000000040e-01 -1.729400000000000104e-01 -5.221599999999999575e-01 -2.268610000000000071e-01 7.473599999999999688e-02 -1.374940000000000051e-01 -1.633340000000000070e-01 1.717619999999999980e-01 -1.580920000000000103e-01 1.289160000000000028e-01 6.903399999999999814e-02 1.469239999999999990e-01 -6.180999999999999862e-03 -3.327080000000000037e-01 8.801599999999999702e-02 -2.635129999999999972e-01 -1.256490000000000107e-01 -1.922119999999999940e-01 -1.213850000000000068e-01 2.303959999999999897e-01 2.060059999999999947e-01 -3.026800000000000046e-01 -1.136200000000000057e-02 1.537290000000000045e-01 -2.995909999999999962e-01 3.586299999999999905e-02 1.354219999999999868e-01 -6.443200000000000316e-02 -2.704989999999999895e-01 1.205969999999999959e-01 2.328719999999999957e-01 9.406299999999999384e-02 -5.182799999999999907e-02 7.785100000000000353e-02 1.756599999999999828e-02 4.688919999999999755e-01 -1.779400000000000079e-02 1.571720000000000061e-01 1.560860000000000025e-01 2.795100000000000015e-02 -6.672100000000000253e-02 -3.239600000000000118e-02 1.689589999999999981e-01 -1.988260000000000027e-01 3.847789999999999822e-01 -1.700899999999999981e-02 -2.551050000000000262e-01 8.892400000000000304e-02 3.375600000000000128e-02 -6.931199999999999861e-02 -4.846799999999999997e-01 -1.492300000000000050e-02 -1.764900000000000149e-02 -3.865400000000000086e-02 -4.793000000000000038e-02 3.344899999999999957e-02 9.331100000000000505e-02 2.000909999999999911e-01 6.943499999999999672e-02 4.010690000000000088e-01 2.523500000000000049e-02 1.338788000000000089e+00 -1.450249999999999873e-01 -3.189930000000000265e-01 7.864619999999999944e-01 -1.977089999999999959e-01 1.275390000000000135e-01 2.347650000000000015e-01 2.965090000000000225e-01 -7.345549999999999580e-01 2.984749999999999903e-01 8.493399999999999561e-02 2.262879999999999892e-01 1.595699999999999896e-01 2.541900000000000270e-01 6.456290000000000084e-01 -1.029589999999999950e-01 -3.459289999999999865e-01 1.852139999999999898e-01 -2.002859999999999918e-01 -3.426069999999999949e-01 -1.139759999999999940e-01 1.262020000000000086e-01 3.775990000000000180e-01 -9.195100000000000495e-02 1.884359999999999924e-01 -1.254639999999999922e-01 3.345000000000000195e-01 -1.053401000000000032e+00 -1.958870000000000056e-01 -4.532019999999999937e-01 1.859860000000000124e-01 5.819000000000000387e-03 -2.404249999999999998e-01 -1.160370000000000013e-01 5.414020000000000499e-01 4.081609999999999960e-01 -5.215800000000000297e-02 -4.136009999999999964e-01 2.052400000000000058e-01 -2.918410000000000171e-01 -3.244659999999999767e-01 -4.421699999999999936e-02 -8.219910000000000272e-01 1.121560000000000057e-01 6.195000000000000506e-01 -1.436209999999999987e-01 -4.612010000000000276e-01 -1.196789999999999937e-01 -2.691890000000000116e-01 -1.910429999999999906e-01 -3.470399999999999874e-02 9.506699999999999873e-02 2.515459999999999918e-01 3.211430000000000118e-01 2.115509999999999891e-01 2.229199999999999932e-02 3.319429999999999881e-01 3.812499999999999917e-02 1.761280000000000068e-01 4.189419999999999811e-01 -5.321129999999999471e-01 1.097944999999999949e+00 -1.712750000000000106e-01 1.567989999999999939e-01 3.854719999999999813e-01 9.320100000000000606e-02 -9.148699999999999888e-02 6.890000000000000508e-04 3.187960000000000238e-01 1.182929999999999954e-01 -3.633190000000000031e-01 1.114649999999999946e-01 3.141229999999999856e-01 2.818530000000000202e-01 3.397999999999999979e-03 -3.075479999999999881e-01 -5.821499999999999453e-01 6.084799999999999931e-02 4.754799999999999999e-02 -3.402999999999999914e-01 -1.854649999999999910e-01 4.305939999999999768e-01 3.643210000000000059e-01 -7.236110000000000042e-01 -1.834909999999999874e-01 -1.048500999999999905e+00 -3.622630000000000017e-01
3.235899999999999888e-02 6.442299999999999416e-02 -2.362799999999999970e-02 1.005989999999999940e-01 3.952300000000000257e-02 4.416199999999999987e-02 9.124400000000000566e-02 -3.125499999999999806e-02 -4.235799999999999982e-02 -3.892550000000000177e-01 2.473670000000000035e-01 5.839699999999999752e-02 -1.018900000000000014e-02 6.640999999999999681e-02 2.198900000000000160e-02 -2.865050000000000097e-01 -8.566699999999999315e-02 -3.338999999999999746e-01 -1.188540000000000013e-01 3.018989999999999729e-01 6.562099999999999878e-02 3.274929999999999786e-01 2.874929999999999986e-01 -1.585409999999999875e-01 3.622690000000000077e-01 1.172099999999999947e-01 -7.313200000000000256e-02 1.002109999999999945e-01 -3.211490000000000178e-01 1.237749999999999961e-01 3.947200000000000014e-02 -5.409100000000000019e-02 2.110380000000000034e-01 -3.017200000000000090e-02 -1.013740000000000058e-01 -6.914599999999999913e-02 1.555870000000000031e-01 6.324999999999999893e-03 -2.616280000000000272e-01 2.099000000000000171e-02 2.969879999999999742e-01 -6.934700000000000586e-02 4.410399999999999737e-02 -1.494610000000000105e-01 2.357920000000000016e-01 -9.435999999999999943e-02 5.403499999999999970e-02 1.754000000000000004e-02 -1.256259999999999877e-01 2.833470000000000155e-01 -5.051800000000000040e-02 -1.061030000000000029e-01 1.772700000000000109e-01 7.347199999999999565e-02 6.332500000000000628e-02 -3.317289999999999961e-01 -6.580300000000000038e-02 8.800000000000000313e-04 1.366960000000000119e-01 2.716599999999999918e-02 -1.716340000000000088e-01 2.058799999999999866e-02 -6.789420000000000455e-01 -8.150770000000000515e-01 -4.242699999999999805e-01 -3.198679999999999857e-01 7.619800000000000184e-02 3.367149999999999865e-01 6.989980000000000082e-01 -1.204550000000000065e-01 3.889770000000000172e-01 -2.712660000000000071e-01 -3.272900000000000115e-02 6.937100000000000211e-02 -3.910290000000000155e-01 2.520890000000000075e-01 -3.704999999999999960e-02 4.421800000000000036e-02 6.093370000000000175e-01 2.715920000000000001e-01 -1.483600000000000023e-02 -2.798129999999999784e-01 -1.958759999999999946e-01 1.629079999999999973e-01 3.577330000000000232e-01 4.553340000000000165e-01 -2.207699999999999940e-02 3.332860000000000267e-01 3.191919999999999757e-01 -1.876999999999999849e-02 -5.083349999999999813e-01 -2.023079999999999878e-01 -4.895000000000000046e-02 -6.202699999999999880e-02 -1.095299999999999919e-02 -3.368760000000000088e-01 -5.909199999999999869e-02 -3.042810000000000237e-01 -3.633979999999999988e-01 2.283299999999999913e-02 -1.552300000000000034e-02 1.839149999999999952e-01 7.643790000000000306e-01 1.511679999999999968e-01 2.765850000000000253e-01 1.229640000000000039e-01 2.436389999999999945e-01 9.899099999999999566e-02 -3.648589999999999889e-01 -1.318640000000000090e-01 -1.256049999999999944e-01 -2.561649999999999761e-01 5.535400000000000043e-02 1.440220000000000111e-01 -4.276209999999999734e-01 -2.302980000000000027e-01 -2.681399999999999895e-01 -4.768700000000000022e-02 -6.771810000000000329e-01 2.616100000000000092e-01 4.485999999999999988e-01 -6.097150000000000070e-01 1.462910000000000044e-01 1.895509999999999973e-01 -7.571120000000000072e-01 -5.753500000000000281e-02 -2.953390000000000182e-01 3.621090000000000142e-01 8.065500000000000447e-02 8.709369999999999612e-01 -9.442399999999999405e-02 5.978999999999999870e-01 -2.937310000000000199e-01 2.219000000000000139e-02 -5.015119999999999578e-01 1.232560000000000044e-01 -2.449499999999999941e-02 -1.219329999999999997e-01 -4.121290000000000231e-01 -3.571409999999999862e-01 3.709060000000000135e-01 5.038700000000000123e-02 -4.952540000000000275e-01 1.982499999999999887e-02 -5.232409999999999561e-01 1.634499999999999842e-02 8.519250000000000433e-01 2.709150000000000169e-01 8.509120000000000017e-01 -1.289619999999999933e-01
-2.196299999999999988e-02 -1.913279999999999981e-01 1.328930000000000111e-01 4.140400000000000330e-02 -6.895300000000000040e-02 6.852500000000000258e-02 -2.038719999999999977e-01 -4.125700000000000200e-02 2.640179999999999749e-01 1.094370000000000065e-01 -8.357599999999999751e-02 7.744900000000000395e-02 5.217089999999999783e-01 -6.722799999999999609e-02 1.513190000000000091e-01 3.056800000000000142e-02 -3.156550000000000189e-01 1.065689999999999971e-01 2.318050000000000110e-01 3.867840000000000167e-01 6.282400000000000484e-02 -3.102079999999999838e-01 -1.956050000000000011e-01 -1.077749999999999958e-01 -6.817199999999999649e-02 -4.805399999999999949e-02 -2.747450000000000170e-01 3.706769999999999787e-01 -7.761600000000000443e-02 1.763909999999999922e-01 5.019540000000000113e-01 1.853499999999999939e-02 1.459820000000000007e-01 -1.026429999999999981e-01 1.114099999999999951e-01 -4.863310000000000133e-01 3.750330000000000052e-01 -1.425839999999999885e-01 -4.174930000000000030e-01 -3.338599999999999901e-02 5.789980000000000127e-01 -3.237999999999999993e-03 2.517300000000000093e-01 -2.042239999999999889e-01 1.198560000000000042e-01 -9.539499999999999369e-02 -3.065950000000000064e-01 1.089849999999999985e-01 -2.387120000000000075e-01 2.982560000000000211e-01 2.871600000000000263e-01 -3.027279999999999971e-01 1.542409999999999892e-01 -8.305300000000000182e-02 2.737919999999999798e-01 -1.299929999999999974e-01 -2.975050000000000194e-01 -8.268200000000000549e-02 9.627700000000000147e-02 -1.093770000000000020e-01 1.952990000000000004e-01 -4.854559999999999986e-01 1.020270000000000010e+00 -4.122069999999999901e-01 4.107020000000000115e-01 8.915170000000000039e-01 -2.607209999999999805e-01 8.500999999999999876e-03 -4.778839999999999755e-01 -9.276950000000000474e-01 -2.391220000000000012e-01 7.991000000000000325e-01 4.566850000000000076e-01 5.550960000000000338e-01 -4.209490000000000176e-01 2.745909999999999740e-01 -1.244659999999999933e-01 -3.212349999999999928e-01 -5.908940000000000303e-01 1.160349999999999993e-01 7.101799999999999780e-02 2.564969999999999750e-01 -4.806509999999999949e-01 1.071500000000000057e-02 -3.326099999999999890e-02 -4.589790000000000258e-01 -3.101059999999999928e-01 -7.418900000000000494e-02 -6.135199999999999682e-02 -5.280620000000000314e-01 2.846659999999999746e-01 1.401290000000000036e-01 5.906270000000000131e-01 -4.153799999999999853e-02 -3.295980000000000021e-01 2.929050000000000264e-01 1.470760000000000123e-01 -5.131050000000000333e-01 -1.406509999999999982e-01 -4.139959999999999751e-01 4.764999999999999791e-01 -4.997599999999999959e-02 -6.025279999999999525e-01 -5.425599999999999867e-02 -8.434999999999999443e-02 3.736450000000000049e-01 3.966290000000000093e-01 -3.145180000000000198e-01 2.224039999999999906e-01 7.628000000000000232e-03 -1.607580000000000120e-01 -1.494439999999999935e-01 7.455900000000000027e-02 -6.045999999999999985e-02 1.068360000000000004e-01 -5.483909999999999618e-01 -6.631890000000000285e-01 -2.120110000000000050e-01 -1.251929999999999987e-01 -3.138569999999999971e-01 -1.820319999999999994e-01 7.056259999999999755e-01 9.225000000000000561e-03 2.678200000000000025e-02 2.646180000000000199e-01 -8.210099999999999343e-02 -4.901479999999999726e-01 7.776889999999999636e-01 -2.022750000000000103e-01 -2.709329999999999794e-01 7.300429999999999975e-01 -9.766000000000000375e-03 7.564600000000000490e-02 -2.695179999999999798e-01 1.110050000000000064e-01 -3.028310000000000168e-01 -2.853729999999999878e-01 8.642900000000000582e-02 7.058579999999999854e-01 -2.958300000000000166e-02 -2.159099999999999908e-01 -1.586750000000000105e-01 -2.460110000000000074e-01 1.559139999999999970e-01 5.895740000000000425e-01 2.663320000000000132e-01 -1.631229999999999902e-01 1.591960000000000042e-01 -4.508659999999999890e-01 5.579899999999999860e-01
2.557729999999999726e-01 2.915420000000000234e-01 6.264150000000000551e-01 1.465150000000000063e-01 -3.029199999999999948e-02 1.096810000000000007e-01 1.594510000000000094e-01 -1.868009999999999948e-01 2.924280000000000213e-01 4.210490000000000066e-01 -1.374479999999999869e-01 3.308200000000000029e-01 -7.849000000000000074e-03 5.390500000000000153e-02 1.317260000000000097e-01 7.346000000000000099e-03 9.738800000000000234e-02 -2.487000000000000044e-01 -2.336590000000000056e-01 -2.530189999999999939e-01 -2.277659999999999962e-01 1.906229999999999869e-01 1.875880000000000047e-01 4.817799999999999860e-02 -1.515090000000000048e-01 5.067699999999999982e-02 -4.204000000000000098e-02 -2.291199999999999834e-02 4.141779999999999906e-01 4.989330000000000154e-01 -4.914700000000000318e-02 -1.265809999999999991e-01 2.240500000000000130e-02 2.205959999999999865e-01 4.898099999999999676e-02 -1.148000000000000062e-02 2.755529999999999924e-01 -6.370000000000000662e-02 -3.935000000000000164e-01 -1.590860000000000052e-01 1.065880000000000022e-01 -3.607219999999999871e-01 -1.046599999999999961e-02 -1.020399999999999953e-02 3.549499999999999877e-02 -2.136540000000000106e-01 -4.167339999999999933e-01 1.547679999999999889e-01 -3.352879999999999749e-01 1.144069999999999948e-01 1.404610000000000025e-01 -7.231899999999999440e-02 -2.453120000000000023e-01 -1.420349999999999946e-01 7.304800000000000182e-02 -1.255580000000000029e-01 -1.916750000000000120e-01 -2.115239999999999898e-01 3.291629999999999834e-01 -5.138100000000000306e-02 -3.652770000000000183e-01 2.961070000000000091e-01 1.723699999999999885e-02 1.606697999999999960e+00 -2.284800000000000025e-02 -1.216519999999999962e-01 4.593599999999999905e-01 -2.838559999999999972e-01 -2.452120000000000133e-01 8.607599999999999696e-01 6.193210000000000104e-01 -9.067629999999999857e-01 -2.928870000000000084e-01 -5.725190000000000001e-01 7.371320000000000094e-01 9.777700000000000280e-02 4.269870000000000054e-01 1.339100000000000013e-02 -3.141360000000000263e-01 2.910280000000000089e-01 -1.445420000000000038e-01 3.182499999999999912e-02 -2.122620000000000062e-01 3.839499999999999857e-02 -2.186319999999999930e-01 -5.648760000000000447e-01 6.956400000000000083e-02 -1.782479999999999898e-01 1.818190000000000084e-01 4.201550000000000007e-01 -3.884699999999999959e-02 -4.728899999999999770e-02 2.211499999999999924e-02 -3.916799999999999726e-01 -1.539560000000000095e-01 3.735649999999999804e-01 -1.913590000000000013e-01 -1.917540000000000078e-01 3.516230000000000189e-01 -8.562000000000000166e-03 3.873409999999999909e-01 -2.043470000000000009e-01 -4.110360000000000125e-01 1.474810000000000010e-01 -4.566049999999999831e-01 -7.897319999999999895e-01 1.811049999999999882e-01 1.492300000000000015e-01 1.103360000000000035e-01 -2.198370000000000046e-01 4.666800000000000115e-02 2.357930000000000026e-01 -1.615129999999999899e-01 3.888899999999999996e-02 9.985000000000000542e-01 -3.755689999999999862e-01 -4.506410000000000138e-01 -4.186900000000000344e-02 3.041059999999999874e-01 4.436499999999999888e-01 -4.816770000000000218e-01 4.038490000000000135e-01 3.481670000000000043e-01 -2.285639999999999894e-01 -2.722180000000000155e-01 3.783279999999999976e-01 -4.829699999999999965e-02 3.373799999999999716e-02 -6.296699999999999520e-02 5.014899999999999913e-01 -7.129399999999999626e-02 -7.019400000000000084e-01 1.086820000000000008e-01 -3.696309999999999873e-01 8.751100000000000545e-02 1.652500000000000149e-02 1.005211999999999994e+00 -1.215100000000000069e-01 -2.961880000000000068e-01 -1.689990000000000103e-01 3.325449999999999795e-01 -2.962770000000000126e-01 -3.762719999999999954e-01 -2.201869999999999938e-01 -2.035220000000000085e-01 -2.968870000000000120e-01 -2.667599999999999971e-01 -5.134950000000000347e-01 -1.528400000000000071e-02 -6.870519999999999960e-01