7.972083209497816014e+00 -1.621961410700157424e+00 -6.649345174973070316e-01 -1.621961410700157424e+00 8.600344822664839128e+00 3.049509229642870078e+00 -6.649345174973070316e-01 3.049509229642870078e+00 5.391314998778963918e+00
1.544208484524319802e+00 2.684144971118950007e+00 3.120455291733834180e+00 2.684144971118950007e+00 7.958077105704128407e+00 1.338626403992696987e-02 3.120455291733834180e+00 1.338626403992696987e-02 1.623849362977666244e+00
6.571131633934346183e+00 6.872316888229457188e-01 -2.483862804812141611e+00 6.872316888229457188e-01 8.964793538066231804e+00 9.726309325085256141e-01 -2.483862804812141611e+00 9.726309325085256141e-01 3.253129432054792769e+00
6.155753699866179041e+00 7.418571995993002988e-01 4.119602855176165979e-01 7.418571995993002988e-01 8.389849516929096751e+00 3.208546462610006422e+00 4.119602855176165979e-01 3.208546462610006422e+00 3.782745538721979717e+00
6.544017909659761933e+00 2.455668625920910397e+00 4.327869012439668595e+00 2.455668625920910397e+00 7.287239894037983667e+00 -1.311728770641441832e-01 4.327869012439668595e+00 -1.311728770641441832e-01 3.643042756789573122e+00
7.614907659647427884e+00 -4.872736589011309460e-01 -1.656251628270573484e+00 -4.872736589011309460e-01 7.323975351003968903e+00 2.823409884601453257e+00 -1.656251628270573484e+00 2.823409884601453257e+00 3.514292372708015311e+00
7.223447578829869542e+00 1.887844232047151793e+00 -1.423516017241647891e+00 1.887844232047151793e+00 5.936222381573323936e+00 2.836796148641379745e+00 -1.423516017241647891e+00 2.836796148641379745e+00 2.584942177501055038e+00
1.153522919068799446e+01 9.425829209592587743e-01 2.005704770913560697e+00 9.425829209592587743e-01 7.778448682385006308e+00 3.659573712424266212e+00 2.005704770913560697e+00 3.659573712424266212e+00 7.951691050259422688e+00
4.727932923967681056e+00 2.559540120803368429e-02 -2.478966639417758522e+00 2.559540120803368429e-02 1.400463096344680913e+01 4.572739834794509406e+00 -2.478966639417758522e+00 4.572739834794509406e+00 5.387385555936318404e+00
5.373260033474475783e+00 -5.882222397153975824e-02 3.621587202744269263e+00 -5.882222397153975824e-02 6.610790004968522204e+00 -1.946069362677913528e-01 3.621587202744269263e+00 -1.946069362677913528e-01 2.698054402657464212e+00
3.424125591647233069e+00 4.389659643305363623e-01 -6.684147186835581733e-01 4.389659643305363623e-01 1.232362555124853642e+01 -1.924460270344980906e-01 -6.684147186835581733e-01 -1.924460270344980906e-01 3.981168185767507417e+00
4.527952147632884561e+00 -9.071269497235133483e-02 -2.406729718390064665e+00 -9.071269497235133483e-02 1.069496532192517080e+01 -1.888009143541271861e-01 -2.406729718390064665e+00 -1.888009143541271861e-01 4.788108559511652373e+00
5.499445759492308738e+00 -8.235225088080475597e-01 7.963291720880260049e-01 -8.235225088080475597e-01 9.028022879553040170e+00 1.315385256528303959e+00 7.963291720880260049e-01 1.315385256528303959e+00 5.370803420872415579e+00
7.735679739375536990e+00 1.473131630558709437e+00 -2.987934689700504798e+00 1.473131630558709437e+00 4.284201586117409200e+00 -4.452212279005957063e-01 -2.987934689700504798e+00 -4.452212279005957063e-01 5.012337012085296806e+00
3.599796139107480641e+00 -2.490459264576931453e+00 1.322857453192902044e+00 -2.490459264576931453e+00 8.265216233597287854e+00 -7.703868880820163856e-01 1.322857453192902044e+00 -7.703868880820163856e-01 6.074372720819707361e+00
8.055443126473724291e+00 1.397681778697302590e+00 2.484869333586596785e+00 1.397681778697302590e+00 9.028426628383471098e+00 4.122764606580668456e+00 2.484869333586596785e+00 4.122764606580668456e+00 5.950643607403933721e+00
7.228048040855486356e+00 -1.024441574678353339e-01 -1.803278755183195248e-01 -1.024441574678353339e-01 1.217090044788391623e+01 -1.001916939222894154e+00 -1.803278755183195248e-01 -1.001916939222894154e+00 4.177833672410172561e+00
2.172771487663354595e+00 2.394964136275107514e+00 -2.114643029287766929e+00 2.394964136275107514e+00 6.802337548690229774e+00 -2.168927343869390956e-01 -2.114643029287766929e+00 -2.168927343869390956e-01 2.309585475147042821e+00
1.965636964445707902e+00 1.732139348581883898e+00 2.792963810825000781e+00 1.732139348581883898e+00 8.340694518474922603e+00 3.994821720159972944e+00 2.792963810825000781e+00 3.994821720159972944e+00 1.480700499478480925e+00
1.009844632807457643e+01 1.640698768394107887e+00 -2.696166450379954949e+00 1.640698768394107887e+00 7.532070910170106437e+00 -3.284673020257628195e+00 -2.696166450379954949e+00 -3.284673020257628195e+00 7.525099134591112460e+00
3.561400193993807584e+00 -1.126504729728739607e+00 1.621028807767893820e+00 -1.126504729728739607e+00 1.640954665540155588e+01 5.065250855284753051e+00 1.621028807767893820e+00 5.065250855284753051e+00 6.193580984655301158e+00
8.713752751190014800e-01 3.712663840324333275e+00 2.050970132747808261e+00 3.712663840324333275e+00 1.398766213936221092e+01 4.055685434696650049e-02 2.050970132747808261e+00 4.055685434696650049e-02 6.572718196239842214e+00
7.630921134386779769e+00 -1.034575101661849406e+00 -1.201306308820158097e+00 -1.034575101661849406e+00 5.775848796843494171e+00 9.282583673838228355e-01 -1.201306308820158097e+00 9.282583673838228355e-01 1.202255971562157910e+00
1.389248546084213665e+00 2.384387054238461534e+00 -1.715397988627107129e+00 2.384387054238461534e+00 7.447465627083431627e+00 2.146539186891823991e+00 -1.715397988627107129e+00 2.146539186891823991e+00 2.302585266551822496e+00
9.518208079315872538e+00 -3.677924381097521511e-01 3.809444140959641789e+00 -3.677924381097521511e-01 1.372046002606225912e+01 -4.498501229424396453e-01 3.809444140959641789e+00 -4.498501229424396453e-01 8.497059047916668106e+00
8.168976160270300824e+00 2.349448563898057341e+00 -1.218513970241067002e+00 2.349448563898057341e+00 1.147404702636957019e+01 2.271820742993621245e+00 -1.218513970241067002e+00 2.271820742993621245e+00 9.075790346815312049e+00
9.685263422859174298e+00 3.153164633601999167e-01 3.817075562515114484e+00 3.153164633601999167e-01 2.274374027850854407e+00 -1.694050480043468143e+00 3.817075562515114484e+00 -1.694050480043468143e+00 6.248104136573236822e+00
7.616966210022302342e+00 -1.239867165427951168e+00 8.235168222048020681e+00 -1.239867165427951168e+00 6.120388714282361420e+00 1.804524121293961780e+00 8.235168222048020681e+00 1.804524121293961780e+00 4.710440932384497792e+00
5.522482189239863004e+00 3.251912498960253473e+00 -1.838820025467623187e-01 3.251912498960253473e+00 1.589332818598078667e+01 -1.815448086128583216e-01 -1.838820025467623187e-01 -1.815448086128583216e-01 9.070797509165755557e+00
8.373227575642475884e+00 -1.558385186415372381e+00 -4.975436643625192890e-01 -1.558385186415372381e+00 1.592308618076453186e+01 -1.899734919433510250e+00 -4.975436643625192890e-01 -1.899734919433510250e+00 1.018866997516781225e+01
7.735662679565801447e+00 4.291167675093157108e-01 5.923137507505408905e+00 4.291167675093157108e-01 8.064695229954168099e+00 -2.134580260266519258e-01 5.923137507505408905e+00 -2.134580260266519258e-01 4.441322433790808155e+00
-2.069400413866500976e+00 -2.008826716095344800e+00 2.995782202179306353e+00 -2.008826716095344800e+00 1.314176853338633322e+01 6.847739389002370558e+00 2.995782202179306353e+00 6.847739389002370558e+00 6.453748769740560220e+00
1.157188503520854184e+01 -3.610219682856497858e+00 -1.294970350876928356e+00 -3.610219682856497858e+00 5.372094279809146222e+00 -1.332433693058338253e+00 -1.294970350876928356e+00 -1.332433693058338253e+00 2.011004685138374715e+00
6.151329522541173489e+00 5.676936019991118965e-01 -3.904933582658220992e-01 5.676936019991118965e-01 1.936184340256245662e+01 1.119328236432908019e+00 -3.904933582658220992e-01 1.119328236432908019e+00 9.236476694723645409e+00
9.864362992076465275e+00 8.813609504181143528e-01 2.295607804369583338e+00 8.813609504181143528e-01 5.486139107897818334e+00 -2.424318382228422220e+00 2.295607804369583338e+00 -2.424318382228422220e+00 3.505034582624327211e+00
-5.385554469691264945e-01 3.050293980890750323e-01 4.613814170036816265e+00 3.050293980890750323e-01 1.011161081458792843e+01 5.751788778511746969e+00 4.613814170036816265e+00 5.751788778511746969e+00 1.772002437332898528e-01
1.179549933463167299e+01 2.395180227198436818e+00 -1.270933078958164097e+00 2.395180227198436818e+00 -5.634741423909446212e-01 -6.724448144036500707e+00 -1.270933078958164097e+00 -6.724448144036500707e+00 1.042411240934160155e+00
1.482963767570193214e+00 1.415509279871971782e-01 -2.172691875217917623e+00 1.415509279871971782e-01 1.417986364245715158e+01 5.394920305236616365e+00 -2.172691875217917623e+00 5.394920305236616365e+00 3.460013744729637075e+00
4.806032732941494245e+00 1.366007398619820234e+00 -1.535496608352200809e+00 1.366007398619820234e+00 1.286807231918001015e+01 -4.802905101156465517e-01 -1.535496608352200809e+00 -4.802905101156465517e-01 7.905089336662480370e+00
7.272022543753003276e+00 -2.250581279871647133e+00 1.502610981783425226e+00 -2.250581279871647133e+00 1.039355260350023791e+01 -2.029065337046109807e+00 1.502610981783425226e+00 -2.029065337046109807e+00 6.668150771905966501e+00
3.036253757477590298e+00 1.697706965930330325e+00 2.588644156213880887e+00 1.697706965930330325e+00 8.789515366229924354e+00 2.586449127361114986e+00 2.588644156213880887e+00 2.586449127361114986e+00 4.505018076743748878e+00
5.969477637353056920e+00 -2.338120850233004422e+00 2.185100043499617062e+00 -2.338120850233004422e+00 1.257081082112430082e+01 -2.381839455984473997e+00 2.185100043499617062e+00 -2.381839455984473997e+00 4.440531995939682730e+00
6.677181097859833159e+00 4.495544195736731474e-01 3.304246308628668416e+00 4.495544195736731474e-01 8.904180034072357586e+00 -3.360788204698759163e+00 3.304246308628668416e+00 -3.360788204698759163e+00 4.914709407566407506e+00
1.239382098171109270e+01 2.911910490911302052e+00 8.227104618645890710e+00 2.911910490911302052e+00 1.649007464396120071e+01 3.621683874999443109e+00 8.227104618645890710e+00 3.621683874999443109e+00 9.700304488443546092e+00
8.379568138261218380e+00 1.287663065706450061e+00 4.361510957240096742e-01 1.287663065706450061e+00 1.847411914311262038e+01 -3.923722119781380524e+00 4.361510957240096742e-01 -3.923722119781380524e+00 5.398935047127945808e+00
6.873158505509792349e+00 -2.044117775836970630e+00 -3.135285952998120518e+00 -2.044117775836970630e+00 6.427675693859904449e+00 1.897932266204683804e+00 -3.135285952998120518e+00 1.897932266204683804e+00 4.002754531687457984e+00
3.569952845275052411e+00 3.874618300756414779e+00 4.458114973174795104e+00 3.874618300756414779e+00 4.348170186026133699e+00 1.130314753903230107e+00 4.458114973174795104e+00 1.130314753903230107e+00 -1.362339539526467469e+00
4.035702710891934331e+00 -1.825649852351025615e+00 6.869246122476883043e-01 -1.825649852351025615e+00 3.993667339701135077e+00 1.020421146183778882e+00 6.869246122476883043e-01 1.020421146183778882e+00 6.818601233972384712e+00
1.514641559609622945e+01 -2.379615994115480138e-01 7.802133384902549817e-01 -2.379615994115480138e-01 1.746814196917243223e+01 4.836632345005575928e+00 7.802133384902549817e-01 4.836632345005575928e+00 7.727536523527969159e+00
1.504971490790635613e+01 1.685116826344774443e+00 5.317224245093234991e+00 1.685116826344774443e+00 1.001033809738866864e+01 5.127644266094472769e+00 5.317224245093234991e+00 5.127644266094472769e+00 8.253962445774426726e+00
8.375070035094021037e+00 -2.785400628508474252e+00 -9.830999690835066918e-02 -2.785400628508474252e+00 1.319166279026242528e+01 1.846832449440544588e+00 -9.830999690835066918e-02 1.846832449440544588e+00 1.894042629584756110e+00
-2.004669809122878288e+00 -1.834395848142617691e+00 3.463641797600271577e+00 -1.834395848142617691e+00 3.421777024506837961e+00 -3.485080291835838562e+00 3.463641797600271577e+00 -3.485080291835838562e+00 1.539886666057733278e+00
2.982014935721930105e+00 -2.926951556495671625e-01 2.114927359450041955e+00 -2.926951556495671625e-01 1.133384382335155749e+01 -6.032178124738034608e-01 2.114927359450041955e+00 -6.032178124738034608e-01 -6.515141338379069891e-02
1.240977759041799011e+01 -4.978393677312857313e-01 1.974439826269755116e+00 -4.978393677312857313e-01 9.205183317063612591e+00 5.157225976177607585e+00 1.974439826269755116e+00 5.157225976177607585e+00 1.004897856644189780e+01
1.453908068287267774e+01 4.556618314593492425e-01 -8.090728499612105384e-01 4.556618314593492425e-01 1.707169473730856524e+01 -5.206028405230561651e-01 -8.090728499612105384e-01 -5.206028405230561651e-01 9.222624129217587452e+00
1.121250876990214351e+01 -3.875363245781576760e-01 -2.973314432756302139e+00 -3.875363245781576760e-01 7.411901610386021133e+00 -1.861321914510100317e+00 -2.973314432756302139e+00 -1.861321914510100317e+00 6.230469979908915157e+00
3.767414456372089049e+00 -2.876113323480826156e-01 4.769257469752791856e+00 -2.876113323480826156e-01 9.627510280297791212e+00 -5.450381746690060591e-01 4.769257469752791856e+00 -5.450381746690060591e-01 9.645957621226221024e-01
-5.314841558333366578e+00 4.275870712362739301e-01 4.351383116859845579e+00 4.275870712362739301e-01 8.872221323832599538e+00 -7.698938595806306573e+00 4.351383116859845579e+00 -7.698938595806306573e+00 8.636926741343194935e-01
6.198238312713373332e+00 -2.064083439831950972e+00 -4.551784701834811209e+00 -2.064083439831950972e+00 5.082014961652513207e+00 5.346396519742692810e+00 -4.551784701834811209e+00 5.346396519742692810e+00 2.975145519001355598e+00
6.675446683869953546e+00 2.603025575821771742e+00 4.016760635481144703e+00 2.603025575821771742e+00 4.285549311086594315e+00 -5.088332777858272316e+00 4.016760635481144703e+00 -5.088332777858272316e+00 4.149321043737193015e+00
6.160411027924250327e+00 8.607242672401640982e-02 -3.606671242431300772e-01 8.607242672401640982e-02 1.347467366058489091e+01 5.778766024308439775e+00 -3.606671242431300772e-01 5.778766024308439775e+00 7.330873200740770201e+00
7.008965964219026068e-01 1.757831422045091463e+00 2.950602139393741385e+00 1.757831422045091463e+00 7.252005700328813198e+00 -3.534223917083522543e-02 2.950602139393741385e+00 -3.534223917083522543e-02 2.014729410264182619e+00
5.412031294402352088e+00 -4.263189587125255087e-01 2.913588038868726304e+00 -4.263189587125255087e-01 2.371745735223695917e+00 1.771422403801856671e+00 2.913588038868726304e+00 1.771422403801856671e+00 3.973263807256250502e+00
1.086897538123773010e+01 5.990836519143187544e-02 -6.090960542486855367e+00 5.990836519143187544e-02 9.475757586088151996e+00 -3.126665062477929635e-01 -6.090960542486855367e+00 -3.126665062477929635e-01 5.159972605545187996e+00
1.602729887184172242e+01 3.317905529624379790e-01 3.575144714038201332e+00 3.317905529624379790e-01 9.402957691339151935e+00 -9.543030102482517041e-01 3.575144714038201332e+00 -9.543030102482517041e-01 1.056283709551578198e+01
6.827762351800898522e+00 -9.367314062196304691e-01 -3.858565019794344408e+00 -9.367314062196304691e-01 7.810657603167566521e+00 -4.162781233619312182e+00 -3.858565019794344408e+00 -4.162781233619312182e+00 4.012262532313948249e+00
3.580052252639075228e+00 1.641910014885400892e+00 4.612238980937810595e+00 1.641910014885400892e+00 8.001101945859646847e+00 1.312331550585465800e+00 4.612238980937810595e+00 1.312331550585465800e+00 7.477826401811201729e-01
1.898409940877306745e+00 -1.271859995287182077e+00 5.322933594751725117e+00 -1.271859995287182077e+00 6.956649214360347777e+00 3.511886939535165286e+00 5.322933594751725117e+00 3.511886939535165286e+00 5.030454530025487259e+00
9.645508379569825763e+00 6.778146738483837863e-01 -4.890620956218434401e+00 6.778146738483837863e-01 3.990715992616716168e+00 3.605522548575707642e+00 -4.890620956218434401e+00 3.605522548575707642e+00 1.993097571518268607e-01
3.045630966229433856e+00 1.671377992903626097e+00 3.039296090213937429e+00 1.671377992903626097e+00 8.807991140174580735e+00 -5.554611497576986245e+00 3.039296090213937429e+00 -5.554611497576986245e+00 4.733079299904866311e+00
3.001093489610611176e+00 -1.417272126878079408e-01 -1.534564005419937427e+00 -1.417272126878079408e-01 6.670260501710050249e+00 4.508936146379904031e+00 -1.534564005419937427e+00 4.508936146379904031e+00 2.882300347811939112e+00
8.655294469826186887e-01 -1.630206985406144726e+00 -3.451512272877601539e+00 -1.630206985406144726e+00 4.503056198624048712e+00 -8.024991366094027523e-01 -3.451512272877601539e+00 -8.024991366094027523e-01 2.572534009219355600e+00
-2.307947733412336611e+00 4.699994642222497632e+00 6.693973637243820995e+00 4.699994642222497632e+00 6.331327575071253655e+00 -3.392400032140541200e+00 6.693973637243820995e+00 -3.392400032140541200e+00 5.239846634731600616e+00
5.161018940542361655e+00 -3.157031523808945250e-01 8.701242224049895446e-01 -3.157031523808945250e-01 2.052539635243568750e+00 -3.339031260681443847e+00 8.701242224049895446e-01 -3.339031260681443847e+00 1.968503012481444214e+00
4.431194593410557658e+00 2.523231159080796981e+00 -1.725730546724196124e+00 2.523231159080796981e+00 6.749685289240066943e+00 4.637970860623737757e+00 -1.725730546724196124e+00 4.637970860623737757e+00 3.795113900780960670e+00
6.269241240836792350e+00 -8.085212494463961397e-01 3.226988116935189943e+00 -8.085212494463961397e-01 1.242451726603034778e+01 -1.442662810369274684e+00 3.226988116935189943e+00 -1.442662810369274684e+00 5.135850034577741141e+00
6.694883493763102322e+00 1.210018184992277090e+00 -7.915069325358348173e-01 1.210018184992277090e+00 6.283662466667401247e+00 -2.764075866337817988e+00 -7.915069325358348173e-01 -2.764075866337817988e+00 1.912182893937928174e+00
6.738653278943780300e+00 7.708076967221839659e-01 -2.535753059427406697e+00 7.708076967221839659e-01 4.661996759336010321e+00 8.908291448218860209e-01 -2.535753059427406697e+00 8.908291448218860209e-01 2.364080194048750805e+00
3.469481939133408410e+00 -1.775357533247748712e-02 -2.032426119564204825e+00 -1.775357533247748712e-02 7.135077764394667454e+00 1.942014814563865821e+00 -2.032426119564204825e+00 1.942014814563865821e+00 -1.803557398742225315e+00
8.510371386114403691e+00 4.347919975483331423e-01 2.838342904724158178e+00 4.347919975483331423e-01 7.660468724850442612e+00 4.188012692219632571e-01 2.838342904724158178e+00 4.188012692219632571e-01 2.149609952644398359e+00
1.338588872411276576e+01 3.800527547070684520e-01 -2.164110790920445115e+00 3.800527547070684520e-01 8.335013601832658381e+00 1.644440553329652221e+00 -2.164110790920445115e+00 1.644440553329652221e+00 4.761734093658983369e+00
5.569584323922409652e+00 -2.611436062021878612e+00 1.841327817498892516e+00 -2.611436062021878612e+00 6.195872685763241350e+00 -2.381014898513874822e+00 1.841327817498892516e+00 -2.381014898513874822e+00 4.322182409194160080e+00
1.231797875422574684e+00 5.270127797013933524e+00 -8.424588976155907849e-01 5.270127797013933524e+00 6.948432072670588155e+00 3.096372526989105811e+00 -8.424588976155907849e-01 3.096372526989105811e+00 7.869235303199549891e-01
4.694671981584702891e+00 3.982271386797135992e-01 1.330107872330925423e+00 3.982271386797135992e-01 1.085600992583797053e+00 -1.038675142601861001e+00 1.330107872330925423e+00 -1.038675142601861001e+00 -3.518756356255739459e-01
5.759090377078980971e+00 1.499898472035317676e+00 2.027046592893954058e-01 1.499898472035317676e+00 5.709122194360697122e+00 2.096059209881445007e+00 2.027046592893954058e-01 2.096059209881445007e+00 5.468158068435520214e+00
1.260098393794496729e+01 4.939548490542787995e+00 -5.904968810136009827e-01 4.939548490542787995e+00 7.551189270281505550e+00 -4.092187740929569273e+00 -5.904968810136009827e-01 -4.092187740929569273e+00 7.010325062394702655e+00
1.394901598370573659e+01 -1.773879016403916431e-01 1.847179332238520821e+00 -1.773879016403916431e-01 6.090983288899836978e+00 -4.029174490366090211e+00 1.847179332238520821e+00 -4.029174490366090211e+00 4.825708380170954825e+00
4.139909715365876153e+00 -7.100235946309437773e-01 -1.066806768857391452e+00 -7.100235946309437773e-01 4.162280812533706964e+00 6.686251230036419635e+00 -1.066806768857391452e+00 6.686251230036419635e+00 1.899922577340611873e+00
-3.353549158767227034e+00 2.687835576625285494e+00 1.616092836150792467e+00 2.687835576625285494e+00 -1.432387118304640827e+00 -1.314230876069465703e-01 1.616092836150792467e+00 -1.314230876069465703e-01 3.981987056634860522e+00
2.882516438735267972e+00 -6.144772868999102133e-01 2.389675595256784302e+00 -6.144772868999102133e-01 1.736558407963968875e+01 -2.531198090227753994e+00 2.389675595256784302e+00 -2.531198090227753994e+00 1.356977072665952910e+00
6.855075107189075645e+00 3.072267015831395387e+00 -4.324798246687094228e+00 3.072267015831395387e+00 6.532673136184972584e+00 1.592766389637716662e+00 -4.324798246687094228e+00 1.592766389637716662e+00 6.657863706634841172e+00
8.394097409553491929e+00 2.092669994347122128e-03 2.578766526376432999e+00 2.092669994347122128e-03 1.346720146392029349e+01 -5.540503034924880055e+00 2.578766526376432999e+00 -5.540503034924880055e+00 5.453515065078335944e+00
9.699371885511281377e+00 1.380582162738058560e+00 -1.246571670654405661e+00 1.380582162738058560e+00 -3.260544762686936160e+00 -1.135028947993756754e+00 -1.246571670654405661e+00 -1.135028947993756754e+00 2.696757857117488388e+00
5.646524065834140238e+00 2.165145752711127525e+00 4.296109333313503420e+00 2.165145752711127525e+00 1.072445035975313132e+01 3.626790444713909434e+00 4.296109333313503420e+00 3.626790444713909434e+00 -4.016049810075456250e+00
8.127651614485191800e+00 1.336255090439320004e+00 -8.077854029864273144e+00 1.336255090439320004e+00 1.298712135812473001e+01 -1.747026875878625374e+00 -8.077854029864273144e+00 -1.747026875878625374e+00 9.690978459120911381e+00
1.519724814250782963e+01 2.608080966107028775e+00 4.317479588310124683e+00 2.608080966107028775e+00 1.307310848580006279e+01 8.200934870510060426e-01 4.317479588310124683e+00 8.200934870510060426e-01 8.259319226031694328e+00
4.472718170309260444e+00 -1.152822329548952807e+00 -1.584287664198663625e-01 -1.152822329548952807e+00 1.959632480078775529e+01 5.307204450174648258e+00 -1.584287664198663625e-01 5.307204450174648258e+00 4.618710335431200242e+00
1.132634888027397757e+00 1.557617494977228678e-01 2.577270949722864302e+00 1.557617494977228678e-01 6.436654840384561815e+00 -2.975873404216780926e+00 2.577270949722864302e+00 -2.975873404216780926e+00 6.669077688234984480e-01
9.138780850965810387e+00 2.569008315207140125e+00 -6.969068755848539354e+00 2.569008315207140125e+00 2.589707551020790977e+00 8.531895179398654161e-01 -6.969068755848539354e+00 8.531895179398654161e-01 6.134093428104037571e+00
-3.510311750436159617e+00 1.782858162928574464e+00 -1.940843374295290857e+00 1.782858162928574464e+00 9.695595980956264626e+00 9.378004876297860726e-01 -1.940843374295290857e+00 9.378004876297860726e-01 2.868550141164299405e-01
-1.328788580377967321e+00 4.668542039671590871e+00 6.392310708276086606e-01 4.668542039671590871e+00 2.089818162819499747e+01 -1.492921009853078740e+00 6.392310708276086606e-01 -1.492921009853078740e+00 6.883786766975648952e+00
1.152443033112477444e+01 1.133340026829840821e-02 6.493429887187718741e+00 1.133340026829840821e-02 3.945371018337031632e+00 -4.793402787133220322e+00 6.493429887187718741e+00 -4.793402787133220322e+00 4.389699449528081665e+00
9.163563067909735738e-01 4.036220191787275091e+00 -6.310207530617434557e+00 4.036220191787275091e+00 1.018665123101565761e+01 2.774072914843421334e+00 -6.310207530617434557e+00 2.774072914843421334e+00 3.492825445456220645e+00
2.830512452055093053e+00 -1.019181466676257974e+00 3.595485693847385367e+00 -1.019181466676257974e+00 7.011371397391876314e+00 -2.810034993768017131e+00 3.595485693847385367e+00 -2.810034993768017131e+00 3.745714378387228205e+00
1.517027658331438289e+01 1.019420304012569334e+00 -1.586005018378807030e+00 1.019420304012569334e+00 2.568638685996182253e-02 4.007758742543504837e+00 -1.586005018378807030e+00 4.007758742543504837e+00 5.921590751422630916e+00
1.699126910760733722e+01 -1.819314976335529188e+00 -9.188868452352247918e-01 -1.819314976335529188e+00 1.241251284657907838e+01 1.628773961388276348e+00 -9.188868452352247918e-01 1.628773961388276348e+00 9.939915202796290927e+00
9.992533342626980897e+00 -9.558611395375209152e-02 -1.154101815279192422e+00 -9.558611395375209152e-02 1.837336390680870224e+01 -1.205707739732181816e+00 -1.154101815279192422e+00 -1.205707739732181816e+00 1.272632236007922124e+01
1.491304308550380675e+01 1.400610379368739389e-01 -3.118925595460792177e+00 1.400610379368739389e-01 6.376820401035321773e+00 -7.383769984130491570e-01 -3.118925595460792177e+00 -7.383769984130491570e-01 7.097062821698444601e+00
4.776172379299329585e+00 -1.179549364802842781e+00 -1.850085186496975620e+00 -1.179549364802842781e+00 3.412087052576491253e+00 -4.748654906194314518e-01 -1.850085186496975620e+00 -4.748654906194314518e-01 6.135151136307701591e+00
-5.582879602310408806e-01 3.496186227974316107e+00 -3.348652993372844389e+00 3.496186227974316107e+00 1.039323984032173698e+01 -1.260668760100021268e+00 -3.348652993372844389e+00 -1.260668760100021268e+00 1.102239993680154795e+00
9.340552907322942744e+00 1.909208800440527209e+00 -4.117953740234968074e-01 1.909208800440527209e+00 1.414610227898856998e+01 2.062161367934968847e+00 -4.117953740234968074e-01 2.062161367934968847e+00 9.019862603895736797e+00
1.272972294882003297e+01 1.568854222990353486e+00 -5.485013160455207704e-01 1.568854222990353486e+00 5.954595796659562623e+00 -1.585999331775561627e+00 -5.485013160455207704e-01 -1.585999331775561627e+00 4.950347350106008903e+00
2.453007295602012139e+00 3.439052925166692809e+00 7.379243447947065881e+00 3.439052925166692809e+00 9.223141610112927324e+00 -1.592083997248255667e+00 7.379243447947065881e+00 -1.592083997248255667e+00 5.520264413974114603e+00
6.811896728745929330e+00 1.946012496645458389e-01 -6.159768441757507595e+00 1.946012496645458389e-01 9.334422749024284371e+00 3.101018481840686292e+00 -6.159768441757507595e+00 3.101018481840686292e+00 4.307061731164353091e+00
-1.260373056731254771e+00 6.856735595336764799e-01 7.645871214319222453e+00 6.856735595336764799e-01 1.195583879974203079e+01 1.312979823355453768e-01 7.645871214319222453e+00 1.312979823355453768e-01 3.189769298693337252e+00
3.506302695148075799e-01 -1.709375875790113630e+00 2.291109701202385995e+00 -1.709375875790113630e+00 4.129901293653781558e+00 3.208728433913862865e+00 2.291109701202385995e+00 3.208728433913862865e+00 4.044954814372376362e+00
1.478346245734840358e-01 5.428715788324673941e-01 4.626523728290528936e+00 5.428715788324673941e-01 1.066473533907204718e+01 -1.476572025522241871e+00 4.626523728290528936e+00 -1.476572025522241871e+00 2.337933192325902798e+00
2.954378043948759025e+00 -3.531744558068480533e+00 -1.271211722517194165e+00 -3.531744558068480533e+00 5.094929237623063045e+00 4.984319117894676410e+00 -1.271211722517194165e+00 4.984319117894676410e+00 5.538325065881849696e+00
6.491934310534150043e+00 1.717888720848639750e+00 -7.747536307142422807e+00 1.717888720848639750e+00 1.100018806452459330e+01 2.186629739772658620e+00 -7.747536307142422807e+00 2.186629739772658620e+00 3.764593901162316847e+00
1.374896128152874830e+01 3.767067573574113037e+00 4.323894076771058081e+00 3.767067573574113037e+00 1.309882330567625353e+01 1.812872054858368109e+00 4.323894076771058081e+00 1.812872054858368109e+00 1.042439105290063139e+01
8.091041262790607647e+00 2.721778911397725320e-01 -1.180965329010974285e+00 2.721778911397725320e-01 1.431723491705889906e+01 7.409132234605458889e-01 -1.180965329010974285e+00 7.409132234605458889e-01 4.233755728726503520e+00
2.550623526914411077e+00 2.555394587037392640e+00 1.144030840931396842e+00 2.555394587037392640e+00 7.435199623882868813e+00 -4.425229346606019298e+00 1.144030840931396842e+00 -4.425229346606019298e+00 3.154341760473819534e+00
-2.485221902987817977e+00 1.550190791138594593e+00 -2.743939604245472008e+00 1.550190791138594593e+00 7.151142418563229519e+00 3.723127190296068534e+00 -2.743939604245472008e+00 3.723127190296068534e+00 -3.203786775693515665e+00
8.957213295939968845e+00 -1.744792040803140543e+00 -4.173983842012963130e+00 -1.744792040803140543e+00 5.877201126488190930e+00 -2.202211032665351897e+00 -4.173983842012963130e+00 -2.202211032665351897e+00 -1.819024959570008093e+00
1.396983463818754245e+01 3.944404295785294945e+00 1.335021097535044499e+00 3.944404295785294945e+00 1.077224626003163088e+01 5.388050888516042747e+00 1.335021097535044499e+00 5.388050888516042747e+00 3.861226350113242667e+00
1.848141505507661009e+01 -2.341788709326357409e+00 7.348842866996577960e+00 -2.341788709326357409e+00 2.949146368962891618e+00 4.966002568840894860e+00 7.348842866996577960e+00 4.966002568840894860e+00 8.529927614675708369e+00
1.226251162616905610e+01 3.213584793085527025e+00 -2.908691873474343659e+00 3.213584793085527025e+00 6.728019330874680293e+00 2.853514762183175346e+00 -2.908691873474343659e+00 2.853514762183175346e+00 4.756223775114086116e+00
-3.199271612716581892e+00 7.909951382437391265e-01 -2.825036253129668662e+00 7.909951382437391265e-01 1.428515110154774170e+01 -4.486064628126468889e+00 -2.825036253129668662e+00 -4.486064628126468889e+00 3.339156365952844929e+00
1.342081584124668048e+01 6.151767390991078610e-01 1.978113371966353506e+00 6.151767390991078610e-01 1.643314605887041813e-01 3.626801817920400683e+00 1.978113371966353506e+00 3.626801817920400683e+00 4.964416006535397052e+00
1.179172343007665447e+01 -2.855442520683402208e+00 -7.202196742501405069e+00 -2.855442520683402208e+00 1.364597121014934356e+00 -3.579910087557938159e+00 -7.202196742501405069e+00 -3.579910087557938159e+00 1.096868996914772154e+01
7.965282032016188118e+00 4.812629192706284753e-01 8.011878059009884367e+00 4.812629192706284753e-01 2.045459814202910565e+01 1.761601639996863478e+00 8.011878059009884367e+00 1.761601639996863478e+00 8.973323442934495020e+00