3.991039999999999921e+00 4.248940000000000161e+00 9.965389999999999304e+00 4.384859999999999758e+00 4.284930000000000128e+00 3.689410000000000078e+00 1.018380000000000063e+00 2.789079999999999782e+00 3.135110000000000063e+00 7.699029999999999596e+00 5.754649999999999821e+00 3.122759999999999980e+00 1.908889999999999976e+00 6.091510000000000424e+00 9.818199999999999150e+00 6.311519999999999797e+00 2.557539999999999925e+00 9.865560000000000329e+00 2.308559999999999945e+00 6.724529999999999674e+00 3.197760000000000158e+00 6.522039999999999615e+00 2.013850000000000140e+00 3.619419999999999860e+00 2.358900000000000219e+00 1.475889999999999924e+00 9.455909999999999371e+00 5.985330000000000261e+00 6.563670000000000115e+00 9.488189999999999458e+00 8.279310000000000613e+00 8.611309999999999576e+00 1.127580000000000027e+01 8.398239999999999483e+00 8.507659999999999556e+00 5.434660000000000046e+00 4.395660000000000345e+00 4.599669999999999703e+00 6.666839999999999655e+00 4.192910000000000359e+00 3.921920000000000073e+00 5.943199999999999594e-01 2.193999999999999950e+00 5.637080000000000091e+00 4.779999999999999805e-01 6.397260000000000169e+00 2.499569999999999848e+00 6.066399999999999570e-01 2.144779999999999909e+00 2.299589999999999801e+00 6.398600000000000065e+00 6.402750000000000163e+00 6.520330000000000403e+00 5.954410000000000203e+00 2.589550000000000018e+00 6.463499999999999801e+00 6.605830000000000091e+00 6.129879999999999995e+00 2.377540000000000209e+00 6.809779999999999944e+00 2.437069999999999848e+00 2.055250000000000021e+00 2.941699999999999871e-01 5.955000000000000071e+00 6.232280000000000264e+00 6.221299999999999608e-01 8.349600000000000577e+00 8.615669999999999717e+00 8.426940000000000097e+00 8.372560000000000002e+00 5.020999999999999769e-02 2.323789999999999800e+00 3.033999999999999891e-02 4.510010000000000296e+00 6.390329999999999622e+00 4.181799999999999962e+00 8.560790000000000788e+00 1.046399999999999969e-01 4.406469999999999665e+00 2.632859999999999978e+00 5.161990000000000300e+00 4.287069999999999936e+00 6.142940000000000289e+00 4.748319999999999652e+00 2.034110000000000085e+00 3.966219999999999857e+00 1.102480000000000082e+01 5.719829999999999970e+00 4.337279999999999802e+00 1.125389999999999979e+01 5.593999999999999667e-02 6.021329999999999849e+00 5.139960000000000306e+00 8.269040000000000390e+00 2.732880000000000198e+00 5.355100000000000193e+00 2.385299999999999976e+00 6.611999999999999822e-02 1.144219999999999970e+01 5.731729999999999769e+00 8.287219999999999587e+00 1.131649999999999956e+01 4.270310000000000272e+00 1.489130000000000065e+00 1.521069999999999922e+00 3.893979999999999997e+00 6.831690000000000040e+00 1.250879999999999992e+00 1.757940000000000058e+00 4.444460000000000299e+00 7.477529999999999788e+00 6.850039999999999907e+00 4.697180000000000355e+00 7.503639999999999866e+00 -5.140999999999999737e-02 7.049690000000000012e+00 1.048929999999999918e+00 4.531000000000000305e-02 1.850850000000000106e+00 1.206809999999999938e+00 1.696560000000000068e+00 2.231999999999999956e-02 7.359130000000000393e+00 6.639770000000000394e+00 8.470710000000000406e+00 7.415149999999999686e+00 8.376979999999999649e+00 1.685990000000000100e+00 9.551780000000000825e+00 -8.390999999999999848e-02 6.921820000000000306e+00 9.605909999999999727e+00 6.593300000000000161e+00 8.432840000000000558e+00 3.257050000000000001e+00 1.642079999999999984e+00 2.980400000000000271e-01 3.495280000000000165e+00 3.968160000000000132e+00 6.107479999999999798e+00 8.667329999999999757e+00 4.318080000000000140e+00 2.559070000000000178e+00 8.637439999999999785e+00 6.156200000000000117e+00 4.258980000000000210e+00 2.336310000000000109e+00 2.595489999999999853e+00 4.300550000000000317e+00 2.354629999999999779e+00
4.141110000000000291e+00 4.153010000000000090e+00 9.938129999999999242e+00 4.244970000000000354e+00 4.404869999999999841e+00 3.879179999999999851e+00 1.420560000000000045e+00 2.426429999999999865e+00 3.344349999999999934e+00 7.023200000000000109e+00 5.948879999999999946e+00 3.328120000000000189e+00 1.965209999999999901e+00 6.411209999999999631e+00 9.548949999999999605e+00 6.012870000000000381e+00 1.948309999999999986e+00 9.930120000000000502e+00 2.870260000000000034e+00 6.798119999999999941e+00 3.109789999999999832e+00 6.380950000000000344e+00 2.208709999999999951e+00 3.776860000000000106e+00 2.274630000000000152e+00 1.559919999999999973e+00 9.258990000000000720e+00 5.894820000000000171e+00 7.516960000000000086e+00 9.318550000000000111e+00 6.732000000000000484e-02 8.455239999999999867e+00 1.159849999999999959e+01 8.427789999999999893e+00 1.286499999999999866e-01 5.399370000000000225e+00 4.304459999999999731e+00 4.441679999999999851e+00 6.822910000000000252e+00 4.353780000000000427e+00 4.314960000000000129e+00 6.816900000000000182e-01 2.190609999999999946e+00 5.951939999999999564e+00 3.674299999999999788e-01 5.980920000000000236e+00 2.362600000000000033e+00 3.563999999999999946e-01 2.330270000000000064e+00 2.273950000000000138e+00 6.405260000000000176e+00 6.638989999999999725e+00 6.560469999999999580e+00 6.016519999999999868e+00 2.351160000000000139e+00 6.181560000000000166e+00 6.644009999999999749e+00 6.232739999999999725e+00 2.513380000000000170e+00 6.840239999999999654e+00 1.926139999999999963e+00 2.040950000000000042e+00 1.236445999999999934e+01 6.359890000000000043e+00 6.355159999999999698e+00 2.843000000000000041e-02 8.407560000000000144e+00 9.526999999999999358e-02 8.414170000000000371e+00 -1.316999999999999942e-02 8.618100000000000094e+00 2.359090000000000131e+00 -3.756000000000000311e-02 4.357440000000000424e+00 6.264009999999999856e+00 4.071920000000000428e+00 8.586919999999999220e+00 1.216000000000000067e-02 4.315599999999999881e+00 2.533710000000000129e+00 5.105680000000000440e+00 4.262360000000000149e+00 6.192160000000000331e+00 5.127550000000000274e+00 2.321759999999999824e+00 4.185450000000000337e+00 1.123489999999999966e+01 5.906740000000000101e+00 4.045609999999999928e+00 1.118619999999999948e+01 2.820699999999999874e-01 5.995490000000000208e+00 5.003099999999999881e+00 8.253489999999999327e+00 2.671429999999999971e+00 5.193120000000000402e+00 2.375309999999999810e+00 8.404489999999999128e+00 1.105410000000000004e+01 5.855879999999999974e+00 6.429999999999999605e-02 1.138640000000000008e+01 3.971740000000000048e+00 1.554510000000000058e+00 1.217859999999999943e+00 4.235289999999999999e+00 6.878260000000000041e+00 1.105609999999999982e+00 1.537339999999999929e+00 4.258490000000000109e+00 7.540390000000000370e+00 6.813620000000000232e+00 4.744220000000000326e+00 7.338940000000000019e+00 6.421999999999999931e-02 6.921190000000000175e+00 1.162250000000000005e+00 8.344509999999999650e+00 1.669370000000000021e+00 1.156379999999999963e+00 1.532999999999999918e+00 8.572779999999999845e+00 7.260379999999999612e+00 6.694790000000000241e+00 6.244000000000000244e-02 7.178499999999999659e+00 8.410370000000000346e+00 1.887850000000000028e+00 9.400470000000000326e+00 8.108599999999999142e+00 7.200339999999999741e+00 9.733370000000000744e+00 6.758090000000000153e+00 8.418720000000000425e+00 3.551429999999999865e+00 1.723959999999999937e+00 6.485000000000000486e-02 3.537300000000000111e+00 4.126290000000000013e+00 6.041360000000000063e+00 8.756059999999999732e+00 4.305220000000000269e+00 2.423379999999999868e+00 8.610020000000000451e+00 5.977509999999999657e+00 4.118579999999999686e+00 2.581199999999999939e+00 2.393369999999999997e+00 4.426459999999999617e+00 2.677509999999999835e+00
4.316810000000000258e+00 4.278870000000000395e+00 1.004240000000000066e+01 4.131879999999999775e+00 4.304179999999999673e+00 3.833870000000000111e+00 1.568189999999999973e+00 2.466470000000000162e+00 3.146609999999999907e+00 7.017629999999999590e+00 6.095279999999999809e+00 3.191030000000000033e+00 1.705089999999999995e+00 5.757740000000000080e+00 9.277359999999999829e+00 6.308950000000000280e+00 2.256499999999999950e+00 9.976639999999999731e+00 3.177140000000000075e+00 6.906579999999999941e+00 3.036340000000000039e+00 6.411150000000000126e+00 2.402699999999999836e+00 3.977349999999999941e+00 2.405539999999999790e+00 1.368389999999999995e+00 9.327629999999999200e+00 5.653810000000000002e+00 7.607540000000000191e+00 9.153750000000000497e+00 8.342660000000000409e+00 4.565000000000000308e-02 1.147860000000000014e+01 -7.528999999999999582e-02 8.443690000000000140e+00 5.456699999999999662e+00 4.066040000000000099e+00 4.280619999999999870e+00 6.799409999999999954e+00 4.126059999999999839e+00 4.032919999999999838e+00 6.140999999999999792e-01 2.136969999999999814e+00 6.134680000000000355e+00 3.392999999999999905e-01 6.185990000000000322e+00 2.366789999999999949e+00 8.709599999999999564e-01 2.098599999999999799e+00 2.211460000000000203e+00 6.278459999999999930e+00 6.437899999999999956e+00 6.313719999999999999e+00 6.181009999999999671e+00 2.143679999999999808e+00 6.396440000000000126e+00 6.370429999999999815e+00 5.972430000000000128e+00 2.221979999999999844e+00 6.893620000000000303e+00 1.864849999999999897e+00 1.949759999999999938e+00 1.204110000000000014e+01 6.198900000000000077e+00 6.588289999999999758e+00 1.198150000000000048e+01 8.410569999999999879e+00 2.918000000000000108e-02 8.502370000000000871e+00 -1.893999999999999850e-02 8.582050000000000622e+00 2.318410000000000082e+00 8.420030000000000570e+00 4.329419999999999824e+00 6.223620000000000374e+00 4.169909999999999783e+00 3.789000000000000007e-02 3.380999999999999978e-02 4.036270000000000024e+00 2.475260000000000016e+00 5.080300000000000260e+00 4.252309999999999590e+00 6.126850000000000129e+00 5.089830000000000076e+00 2.412469999999999892e+00 4.289520000000000444e+00 1.121400000000000041e+01 5.970559999999999867e+00 4.187190000000000190e+00 1.146729999999999983e+01 7.055999999999999772e-02 6.001559999999999562e+00 5.053320000000000256e+00 3.629999999999999980e-03 2.561469999999999914e+00 5.076520000000000366e+00 2.438559999999999839e+00 8.373260000000000147e+00 1.117280000000000051e+01 5.784259999999999735e+00 2.639000000000000234e-01 1.134529999999999994e+01 3.903669999999999973e+00 1.633240000000000025e+00 1.186849999999999961e+00 4.487680000000000113e+00 6.981150000000000411e+00 1.096289999999999987e+00 1.592349999999999932e+00 4.296820000000000306e+00 7.362860000000000404e+00 6.798739999999999561e+00 4.386700000000000266e+00 7.389540000000000219e+00 8.381119999999999237e+00 6.890950000000000131e+00 1.113629999999999898e+00 7.115000000000000491e-02 1.680460000000000065e+00 1.179850000000000065e+00 1.706460000000000088e+00 7.502999999999999947e-02 7.477260000000000240e+00 6.759129999999999860e+00 1.406999999999999917e-02 7.223690000000000389e+00 -3.953000000000000264e-02 1.760709999999999997e+00 9.604720000000000368e+00 8.122920000000000584e+00 6.965259999999999785e+00 9.617010000000000502e+00 6.737160000000000259e+00 8.541449999999999321e+00 3.441329999999999778e+00 1.602030000000000065e+00 5.462000000000000188e-02 3.602300000000000058e+00 4.047880000000000145e+00 5.998440000000000438e+00 8.710069999999999979e+00 4.308989999999999654e+00 2.536579999999999835e+00 8.710110000000000241e+00 5.854989999999999917e+00 4.107969999999999899e+00 2.475150000000000183e+00 2.429089999999999971e+00 4.598939999999999806e+00 2.489440000000000097e+00
4.145170000000000243e+00 4.416559999999999597e+00 1.008220000000000027e+01 4.161730000000000373e+00 4.260040000000000049e+00 3.773029999999999884e+00 1.736609999999999987e+00 2.429390000000000160e+00 3.234550000000000036e+00 6.960740000000000371e+00 6.239169999999999661e+00 3.122230000000000061e+00 1.807360000000000078e+00 5.711420000000000385e+00 9.213979999999999393e+00 6.496819999999999595e+00 2.494569999999999954e+00 9.767170000000000130e+00 2.758929999999999882e+00 6.821749999999999758e+00 3.022860000000000102e+00 6.276189999999999714e+00 2.161439999999999806e+00 3.785099999999999909e+00 2.544070000000000054e+00 1.285719999999999974e+00 9.265449999999999520e+00 5.888539999999999885e+00 7.453129999999999811e+00 9.355639999999999290e+00 -3.429000000000000103e-02 8.610709999999999198e+00 1.163749999999999929e+01 8.399290000000000589e+00 6.205999999999999711e-02 5.343910000000000160e+00 4.151309999999999611e+00 4.328859999999999708e+00 6.835449999999999804e+00 4.293829999999999814e+00 4.386129999999999640e+00 7.463899999999999979e-01 2.144330000000000069e+00 6.132869999999999600e+00 2.199099999999999944e-01 6.315859999999999808e+00 2.567330000000000112e+00 6.148900000000000476e-01 2.117189999999999905e+00 2.073929999999999829e+00 6.208140000000000214e+00 6.253420000000000201e+00 6.345979999999999954e+00 6.382209999999999717e+00 2.015559999999999796e+00 6.277470000000000105e+00 6.012640000000000207e+00 5.922570000000000334e+00 2.154619999999999980e+00 6.717050000000000409e+00 2.116420000000000190e+00 2.181259999999999977e+00 5.900999999999999995e-02 6.285379999999999967e+00 6.704240000000000421e+00 1.233300000000000018e+01 -1.031900000000000039e-01 8.460879999999999512e+00 8.491970000000000240e+00 8.443960000000000576e+00 5.161999999999999922e-02 2.216009999999999813e+00 8.362610000000000099e+00 4.261210000000000164e+00 6.163739999999999775e+00 4.249789999999999957e+00 1.329999999999999932e-02 9.984999999999999432e-02 4.052629999999999733e+00 2.402940000000000076e+00 4.993619999999999948e+00 4.207840000000000025e+00 6.165470000000000006e+00 4.971529999999999561e+00 2.254340000000000011e+00 4.274829999999999686e+00 1.114470000000000027e+01 5.975480000000000125e+00 4.472170000000000201e+00 1.135069999999999979e+01 8.254419999999999646e+00 5.979949999999999655e+00 5.101810000000000400e+00 -1.990000000000000102e-02 2.621030000000000193e+00 4.958730000000000082e+00 2.528799999999999937e+00 -1.322000000000000085e-02 1.126679999999999993e+01 5.859449999999999825e+00 2.546499999999999875e-01 1.133990000000000009e+01 4.149469999999999992e+00 1.547590000000000021e+00 1.404709999999999903e+00 4.337250000000000050e+00 6.931020000000000181e+00 1.215540000000000065e+00 1.596899999999999986e+00 4.290499999999999758e+00 7.278620000000000090e+00 6.852829999999999977e+00 4.181470000000000020e+00 7.540960000000000107e+00 8.070000000000000784e-03 6.936819999999999986e+00 1.163410000000000055e+00 5.562999999999999889e-02 1.825590000000000046e+00 1.188819999999999988e+00 1.577409999999999979e+00 8.387959999999999638e+00 7.325319999999999609e+00 6.741319999999999979e+00 7.080000000000000356e-03 7.375510000000000232e+00 1.850900000000000045e-01 1.450849999999999973e+00 9.644099999999999895e+00 8.263930000000000220e+00 6.816139999999999866e+00 9.702590000000000714e+00 6.681729999999999947e+00 8.580590000000000828e+00 3.207129999999999814e+00 1.549400000000000110e+00 7.208000000000000518e-02 3.486670000000000158e+00 4.079019999999999868e+00 6.178189999999999849e+00 8.808329999999999771e+00 4.340489999999999959e+00 2.613620000000000054e+00 8.833940000000000126e+00 6.033920000000000172e+00 4.226919999999999789e+00 2.538660000000000139e+00 2.383410000000000029e+00 4.450359999999999872e+00 2.519519999999999982e+00
4.115120000000000111e+00 4.313839999999999897e+00 9.920519999999999783e+00 4.231049999999999756e+00 4.352050000000000196e+00 3.789289999999999825e+00 1.665219999999999922e+00 2.347300000000000164e+00 3.104070000000000107e+00 7.090279999999999916e+00 6.175010000000000332e+00 3.085449999999999804e+00 1.556629999999999958e+00 5.513829999999999565e+00 9.358119999999999550e+00 6.511650000000000382e+00 2.765050000000000008e+00 9.379170000000000229e+00 2.911849999999999827e+00 6.840150000000000396e+00 3.084470000000000045e+00 6.089080000000000048e+00 2.259049999999999780e+00 3.706139999999999990e+00 2.606050000000000200e+00 9.969000000000000083e-01 9.307479999999999976e+00 5.833529999999999660e+00 7.388090000000000046e+00 9.538140000000000285e+00 5.070000000000000201e-02 1.387899999999999967e-01 1.154809999999999981e+01 8.104269999999999641e+00 8.582280000000000797e+00 5.410459999999999603e+00 4.139470000000000205e+00 4.250390000000000335e+00 6.715029999999999610e+00 4.297659999999999592e+00 4.376140000000000363e+00 6.915900000000000380e-01 2.061780000000000168e+00 6.513090000000000046e+00 1.227351999999999954e+01 6.453630000000000422e+00 2.277909999999999879e+00 3.595900000000000207e-01 2.076229999999999798e+00 2.037580000000000169e+00 5.954469999999999708e+00 6.059989999999999988e+00 6.410809999999999675e+00 6.598069999999999879e+00 1.997949999999999893e+00 6.301630000000000287e+00 6.127559999999999896e+00 5.930270000000000152e+00 2.088999999999999968e+00 6.650100000000000122e+00 2.134240000000000137e+00 2.232099999999999973e+00 1.677000000000000018e-02 6.411190000000000389e+00 6.327670000000000350e+00 2.291100000000000081e-01 8.363530000000000797e+00 8.592280000000000584e+00 8.409060000000000201e+00 -4.469999999999999668e-02 8.615289999999999893e+00 2.365639999999999965e+00 8.335229999999999251e+00 4.212010000000000254e+00 6.220369999999999955e+00 4.377180000000000071e+00 1.096599999999999936e-01 2.439399999999999902e-01 4.240169999999999995e+00 2.507340000000000124e+00 5.074489999999999945e+00 4.223309999999999675e+00 6.185550000000000104e+00 5.144230000000000302e+00 2.392360000000000042e+00 4.374819999999999709e+00 1.124210000000000065e+01 5.931420000000000137e+00 4.169719999999999871e+00 1.122330000000000005e+01 8.295260000000000744e+00 5.952539999999999942e+00 5.084120000000000417e+00 8.237489999999999313e+00 2.499950000000000117e+00 5.123109999999999609e+00 2.590980000000000061e+00 -4.139999999999999583e-03 1.135469999999999935e+01 6.035309999999999953e+00 2.182000000000000051e-01 1.148310000000000031e+01 4.152180000000000426e+00 1.783630000000000049e+00 1.388509999999999911e+00 4.311300000000000132e+00 6.974149999999999849e+00 1.261940000000000062e+00 1.494960000000000067e+00 4.165359999999999729e+00 7.294430000000000192e+00 6.669640000000000235e+00 4.214269999999999960e+00 7.428009999999999557e+00 4.252999999999999836e-02 6.990759999999999863e+00 1.156709999999999905e+00 1.630900000000000127e-01 1.670269999999999921e+00 1.230920000000000014e+00 1.481859999999999955e+00 8.480650000000000688e+00 7.236259999999999692e+00 6.539740000000000109e+00 8.551090000000000302e+00 7.367680000000000007e+00 2.023000000000000076e-01 1.676909999999999901e+00 9.454280000000000683e+00 8.297869999999999635e+00 7.039189999999999614e+00 9.698980000000000601e+00 6.786819999999999631e+00 8.571529999999999205e+00 3.432830000000000048e+00 1.499319999999999986e+00 8.577310000000000656e+00 3.688200000000000145e+00 4.002279999999999838e+00 6.063920000000000421e+00 8.637269999999999115e+00 4.152490000000000236e+00 2.531070000000000153e+00 8.654049999999999798e+00 6.013169999999999682e+00 4.262889999999999624e+00 2.391270000000000007e+00 2.469100000000000072e+00 4.517439999999999678e+00 2.542330000000000201e+00
4.130729999999999791e+00 4.178700000000000081e+00 9.966989999999999128e+00 4.216630000000000322e+00 4.429859999999999687e+00 3.749519999999999964e+00 1.864149999999999974e+00 2.584299999999999820e+00 3.439729999999999954e+00 7.375390000000000335e+00 5.931689999999999685e+00 3.176419999999999799e+00 1.721090000000000009e+00 5.946259999999999657e+00 9.570940000000000225e+00 6.230739999999999945e+00 2.087149999999999839e+00 9.945370000000000488e+00 2.831350000000000033e+00 6.873009999999999842e+00 3.194519999999999804e+00 6.124399999999999622e+00 2.094069999999999876e+00 3.408970000000000056e+00 2.431960000000000122e+00 1.376379999999999937e+00 9.431060000000000443e+00 5.724359999999999893e+00 7.134809999999999874e+00 9.273500000000000298e+00 -1.282000000000000084e-01 8.606080000000000396e+00 1.167120000000000068e+01 8.155979999999999563e+00 8.546170000000000044e+00 5.443200000000000038e+00 4.293759999999999799e+00 4.341590000000000060e+00 6.745599999999999596e+00 4.148010000000000197e+00 4.169380000000000308e+00 7.346200000000000507e-01 2.196849999999999969e+00 6.070470000000000255e+00 3.477199999999999736e-01 6.400780000000000136e+00 2.605220000000000091e+00 3.799799999999999844e-01 2.096039999999999903e+00 1.935289999999999955e+00 6.155940000000000190e+00 6.354119999999999990e+00 6.543960000000000221e+00 6.326600000000000001e+00 2.136309999999999931e+00 6.315590000000000259e+00 6.472999999999999865e+00 6.058639999999999581e+00 2.301140000000000185e+00 6.538879999999999804e+00 1.828519999999999923e+00 2.024519999999999875e+00 1.229840000000000089e+01 6.528450000000000308e+00 6.458700000000000330e+00 2.434000000000000052e-02 8.369429999999999481e+00 9.100999999999999368e-02 8.597170000000000201e+00 1.143200000000000049e-01 1.558000000000000010e-02 2.372119999999999784e+00 8.362360000000000682e+00 4.237449999999999939e+00 6.322490000000000165e+00 4.285050000000000026e+00 8.086000000000000132e-02 5.399999999999999939e-02 4.101790000000000269e+00 2.402849999999999930e+00 4.828520000000000145e+00 4.269319999999999560e+00 6.242200000000000415e+00 5.075650000000000439e+00 2.254919999999999813e+00 4.165610000000000035e+00 1.115949999999999953e+01 6.002880000000000216e+00 4.321559999999999846e+00 1.114830000000000076e+01 2.340000000000000066e-03 5.955580000000000318e+00 5.191399999999999793e+00 8.229100000000000747e+00 2.600709999999999855e+00 4.996950000000000003e+00 2.475750000000000117e+00 8.468049999999999855e+00 1.125409999999999933e+01 5.901709999999999567e+00 2.102900000000000047e-01 1.126069999999999993e+01 4.120470000000000077e+00 1.647929999999999895e+00 1.310329999999999995e+00 4.409139999999999837e+00 7.044220000000000148e+00 1.235500000000000043e+00 1.542529999999999957e+00 4.017489999999999561e+00 7.407689999999999664e+00 6.736080000000000290e+00 4.344929999999999737e+00 7.517249999999999766e+00 1.552399999999999891e-01 6.913560000000000372e+00 1.238429999999999920e+00 2.434000000000000052e-02 1.749949999999999894e+00 1.276200000000000001e+00 1.461870000000000003e+00 8.562580000000000524e+00 7.378659999999999997e+00 6.668330000000000091e+00 8.985999999999999543e-02 7.404099999999999682e+00 1.038599999999999940e-01 1.814840000000000009e+00 9.691219999999999501e+00 8.205849999999999866e+00 7.042830000000000368e+00 9.748189999999999245e+00 6.742810000000000414e+00 8.396269999999999456e+00 3.340599999999999792e+00 1.681210000000000093e+00 1.506200000000000039e-01 3.584820000000000118e+00 3.909079999999999888e+00 5.901119999999999699e+00 8.682290000000000063e+00 4.284130000000000216e+00 2.456399999999999917e+00 8.583579999999999544e+00 5.976600000000000357e+00 4.307159999999999656e+00 2.374400000000000066e+00 2.427970000000000184e+00 4.614020000000000010e+00 2.473910000000000053e+00
4.128700000000000259e+00 4.305579999999999963e+00 9.885500000000000398e+00 4.197420000000000151e+00 4.389260000000000161e+00 3.661750000000000060e+00 1.266720000000000068e+00 2.537669999999999870e+00 2.934759999999999813e+00 7.541739999999999888e+00 5.859449999999999825e+00 3.182220000000000049e+00 1.656639999999999890e+00 5.558320000000000149e+00 9.359500000000000597e+00 6.277720000000000411e+00 2.501139999999999919e+00 9.709459999999999980e+00 2.961869999999999781e+00 6.938209999999999766e+00 3.194650000000000212e+00 6.279219999999999580e+00 2.174510000000000165e+00 3.765629999999999811e+00 2.259659999999999780e+00 1.614109999999999934e+00 9.514839999999999520e+00 5.872200000000000308e+00 7.415079999999999671e+00 9.333830000000000737e+00 8.207900000000000418e+00 8.575480000000000658e+00 1.157770000000000010e+01 8.401519999999999655e+00 8.401000000000000134e-02 5.584740000000000038e+00 4.149280000000000079e+00 4.388279999999999959e+00 6.903010000000000090e+00 4.149049999999999905e+00 4.292790000000000106e+00 7.388700000000000268e-01 2.086660000000000181e+00 6.216429999999999900e+00 2.511900000000000244e-01 6.213960000000000150e+00 2.424189999999999845e+00 2.543699999999999850e-01 2.066669999999999785e+00 2.134500000000000064e+00 6.270430000000000170e+00 6.499660000000000437e+00 6.601619999999999600e+00 5.936600000000000321e+00 2.470320000000000071e+00 6.575859999999999594e+00 6.673420000000000130e+00 6.035599999999999632e+00 2.420290000000000052e+00 6.676449999999999996e+00 1.903890000000000082e+00 1.954790000000000028e+00 1.209430000000000049e+01 6.404889999999999972e+00 6.309420000000000250e+00 1.210369999999999990e+01 -1.024400000000000033e-01 8.491630000000000678e+00 8.585520000000000707e+00 8.450039999999999552e+00 2.588999999999999982e-02 2.341689999999999827e+00 -2.649999999999999925e-02 4.409699999999999953e+00 6.280199999999999783e+00 4.027960000000000207e+00 8.521440000000000126e+00 1.233474000000000004e+01 4.134050000000000225e+00 2.596229999999999816e+00 5.132119999999999571e+00 4.249480000000000146e+00 6.139509999999999579e+00 5.047979999999999912e+00 2.289309999999999956e+00 4.165540000000000020e+00 1.121049999999999969e+01 5.829769999999999897e+00 4.204200000000000159e+00 1.129010000000000069e+01 3.651699999999999946e-01 6.131409999999999805e+00 5.240700000000000358e+00 1.136999999999999990e-02 2.785660000000000025e+00 5.045119999999999827e+00 2.366839999999999833e+00 8.326729999999999521e+00 1.120819999999999972e+01 5.751590000000000202e+00 1.812499999999999944e-01 1.119490000000000052e+01 4.013309999999999711e+00 1.435939999999999994e+00 1.180229999999999890e+00 4.412869999999999848e+00 6.909690000000000332e+00 1.089960000000000040e+00 1.637610000000000010e+00 4.207840000000000025e+00 7.560459999999999958e+00 6.856720000000000148e+00 4.437770000000000437e+00 7.469280000000000364e+00 8.400679999999999481e+00 7.006660000000000110e+00 1.085790000000000033e+00 8.454250000000000043e+00 1.773379999999999956e+00 1.215400000000000036e+00 1.666740000000000110e+00 6.454999999999999627e-02 7.532090000000000174e+00 6.737230000000000274e+00 8.558469999999999800e+00 7.316519999999999690e+00 8.414220000000000255e+00 1.498510000000000009e+00 9.809689999999999799e+00 8.233990000000000364e+00 6.780149999999999899e+00 9.752420000000000755e+00 6.763580000000000148e+00 8.473179999999999268e+00 3.629350000000000076e+00 1.608859999999999957e+00 1.676799999999999957e-01 3.528119999999999923e+00 3.993549999999999933e+00 6.113010000000000055e+00 8.783179999999999765e+00 4.245829999999999771e+00 2.453669999999999796e+00 8.651559999999999917e+00 6.060349999999999682e+00 4.153739999999999988e+00 2.496509999999999785e+00 2.352590000000000181e+00 4.599140000000000228e+00 2.435379999999999878e+00