-2.232703735700000038e+02
-2.244895861500000080e+02
-2.251425611500000059e+02
-2.251664985600000080e+02
-2.249367059699999913e+02
-2.249710527899999875e+02
-2.244930668499999911e+02
-2.246348729300000002e+02
-2.247320769000000098e+02
-2.248477410200000008e+02
-2.248865263399999890e+02
-2.247700892599999918e+02
-2.246546360499999935e+02
-2.244083253899999875e+02
-2.245365492500000073e+02
-2.244599687200000062e+02
-2.246402725700000076e+02
-2.245793401500000073e+02
-2.246572751399999959e+02
-2.244038066200000117e+02
-2.243403310200000078e+02
-2.243375535399999876e+02
-2.246544837300000097e+02
-2.245969894099999919e+02
-2.241479387800000040e+02
-2.244615543300000127e+02
-2.241172966000000031e+02
-2.241382278600000006e+02
-2.240984277700000007e+02
-2.238526803999999970e+02
-2.238706543000000124e+02
-2.236046944500000109e+02
-2.238924264999999991e+02
-2.243582581699999992e+02
-2.239903037200000142e+02
-2.241373187799999869e+02
-2.238630505900000003e+02
-2.242885317500000042e+02
-2.236938376800000015e+02
-2.232259702100000140e+02
-2.236240558099999873e+02
-2.238765290300000004e+02
-2.237586914000000036e+02
-2.236899980700000015e+02
-2.233115599200000077e+02
-2.234390957399999991e+02
-2.239332453199999975e+02
-2.236684861699999942e+02
-2.235176342299999988e+02
-2.234889347399999906e+02
-2.239360362699999882e+02
-2.231924701700000071e+02
-2.228712416399999938e+02
-2.231967151000000058e+02
-2.239982730899999979e+02
-2.238936507900000095e+02
-2.237908952699999929e+02
-2.229663784800000030e+02
-2.234745797100000004e+02
-2.231934283699999924e+02
-2.235328564200000017e+02
-2.237266424800000095e+02
-2.232026341300000070e+02
-2.234814128200000027e+02
-2.228172849199999916e+02
-2.233782956599999920e+02
-2.225156848899999886e+02
-2.238774729900000011e+02
-2.236493760200000054e+02
-2.232953101800000013e+02
-2.225530676299999868e+02
-2.226970470100000057e+02
-2.227677527200000043e+02
-2.234338703800000019e+02
-2.232696520000000078e+02
-2.233618665900000053e+02
-2.233562349899999901e+02
-2.229157621100000028e+02
-2.228454985500000021e+02
-2.231351559199999883e+02
-2.225525843400000099e+02
-2.233171993299999940e+02
-2.227749718299999984e+02
-2.223412049300000035e+02
-2.218542110299999877e+02
-2.222419335099999955e+02
-2.225563436500000023e+02
-2.228373965499999940e+02
-2.235326403999999911e+02
-2.227394265099999870e+02
-2.226591740099999868e+02
-2.218101875799999902e+02
-2.221037897999999871e+02
-2.230949396299999989e+02
-2.228815072399999906e+02
-2.230657878000000096e+02
-2.216769473699999935e+02
-2.223604885700000011e+02
-2.220946031800000071e+02
-2.223228827300000034e+02
-2.226006943200000023e+02
-2.234183600099999865e+02
-2.226855285700000024e+02
-2.219821642199999872e+02
-2.217637567799999943e+02
-2.218256841600000087e+02
-2.218120696299999963e+02
-2.222082107100000030e+02
-2.222280201099999886e+02
-2.218040158299999973e+02
-2.217814357599999937e+02
-2.215425650100000041e+02
-2.222060659900000132e+02
-2.228534155499999940e+02
-2.221582796499999972e+02
-2.220598751699999980e+02
-2.211850440700000036e+02
-2.218882065999999895e+02
-2.220622770600000138e+02
-2.218021775800000057e+02
-2.221252720200000113e+02
-2.215088234199999988e+02
-2.218248366699999963e+02
-2.208533696799999859e+02
-2.204489979800000015e+02
-2.201502572599999894e+02
-2.195389994900000090e+02
-2.211501690300000007e+02
-2.217320248100000128e+02
-2.214294640699999945e+02
-2.205429552100000024e+02
-2.196493245499999887e+02
-2.203611020399999916e+02
-2.214665979300000060e+02
-2.224848409200000106e+02
-2.215681609400000127e+02
-2.206623845599999925e+02
-2.203999620099999959e+02
-2.198202668799999913e+02
-2.210438790599999948e+02
-2.211591187699999921e+02
-2.217284596799999861e+02
-2.214792427200000020e+02
-2.199481967499999939e+02
-2.198126046099999940e+02
-2.197791553399999884e+02
-2.213239069299999926e+02
-2.210316871900000137e+02
-2.208883146299999964e+02
-2.206473258999999985e+02
-2.189980595499999936e+02
-2.205488251399999911e+02
-2.211316980599999908e+02
-2.211553723899999966e+02
-2.204069824100000119e+02
-2.207516459599999905e+02
-2.204197747400000083e+02
-2.193795430399999873e+02
-2.197221192099999882e+02
-2.194850802999999928e+02
-2.181209648500000071e+02
-2.200843131899999889e+02
-2.199474360300000058e+02
-2.198921444300000019e+02
-2.208999694000000034e+02
-2.190318935200000112e+02
-2.191608017099999870e+02
-2.193612295800000140e+02
-2.194540787100000045e+02
-2.199775473100000056e+02
-2.187849657499999978e+02
-2.194476435900000126e+02
-2.201582082300000138e+02
-2.190750560099999973e+02
-2.192641736200000082e+02
-2.202601235699999904e+02
-2.194964753499999972e+02
-2.198897759900000040e+02
-2.200116081300000133e+02
-2.188660668999999928e+02
-2.194482160000000022e+02
-2.192442217900000117e+02
-2.203628492400000027e+02
-2.200104962499999885e+02
-2.193634946200000115e+02
-2.196506533699999864e+02
-2.172663643299999876e+02
-2.178256078100000082e+02
-2.188924909899999989e+02
-2.192057698000000130e+02
-2.194188568399999895e+02
-2.192005435000000091e+02
-2.172496697999999924e+02
-2.165959882999999877e+02
-2.175262030499999923e+02
-2.192368115300000113e+02
-2.187119448699999964e+02
-2.195262186399999962e+02
-2.183627087399999880e+02
-2.180553222199999936e+02
