-7.178280000000000216e-01 2.377859999999999974e-01 -8.346099999999999630e-01 -3.820599999999999691e-02 -5.422129999999999450e-01 -1.508440000000000059e-01 1.533640000000000003e-01 -2.692080000000000028e-01 3.860230000000000050e-01 -2.644219999999999904e-01 2.001300000000000023e-01 -6.288629999999999498e-01 5.157760000000000122e-01 -5.735799999999999926e-02 -6.368100000000000149e-02 -2.183529999999999915e-01 -1.655300000000000105e-01 -1.324440000000000062e-01 3.081300000000000150e-01 -1.547090000000000132e-01 -2.394800000000000054e-02 -4.199829999999999952e-01 8.566580000000000306e-01 1.588130000000000097e-01 2.974200000000000108e-02 1.578999999999999848e-02 5.144800000000000068e-02 5.822260000000000213e-01 1.521820000000000117e-01 1.610499999999999987e-01 -2.026499999999999829e-02 1.023600000000000031e-02 6.059229999999999894e-01 2.378909999999999914e-01 2.417040000000000022e-01 -5.373000000000000172e-03 2.532999999999999835e-02 -3.356930000000000192e-01 2.185229999999999950e-01 9.819500000000000450e-02 8.891599999999999504e-02 1.528879999999999961e-01 -6.689260000000000206e-01 1.973910000000000109e-01 -3.102900000000000102e-01 -3.121689999999999743e-01 -1.221890000000000059e-01 1.706600000000000131e-02 6.755099999999999993e-02 -4.572299999999999975e-02 -1.163180000000000047e-01 -2.503270000000000217e-01 -2.209399999999999906e-02 8.790199999999999403e-02 -1.918680000000000108e-01 1.895300000000000040e-01 -4.328499999999999709e-02 2.216500000000000137e-01 1.038799999999999966e-02 1.111560000000000048e-01 -7.372330000000000272e-01 1.663229999999999986e-01 1.516699999999999993e-02 6.275880000000000347e-01 -1.685599999999999946e-02 -1.689400000000000068e-01 9.280070000000000263e-01 -4.661310000000000175e-01 5.035950000000000149e-01 2.290417000000000147e+00 3.248199999999999976e-01 -6.616800000000000459e-01 -4.182730000000000059e-01 -1.665002000000000093e+00 1.153051999999999966e+00 -5.649210000000000065e-01 -2.189850000000000130e-01 9.171319999999999473e-01 -1.635439999999999949e-01 -1.677859999999999907e-01 -5.046380000000000310e-01 -7.589600000000000513e-02 1.146805999999999992e+00 8.818449999999999900e-01 5.591990000000000016e-01 2.736660000000000204e-01 3.425989999999999869e-01 8.430330000000000323e-01 2.283270000000000022e-01 6.533170000000000366e-01 8.102639999999999842e-01 1.628930999999999907e+00 -1.073342999999999936e+00 5.392829999999999568e-01 -2.442149999999999876e-01 -3.233360000000000123e-01 4.450830000000000064e-01 -8.948899999999999910e-02 -6.087059999999999693e-01 -1.069390000000000063e-01 4.239140000000000130e-01 1.285650000000000126e-01 6.622599999999999598e-01 -2.745619999999999727e-01 -1.064645999999999981e+00 2.875480000000000258e-01 7.062829999999999941e-01 -9.438199999999999368e-02 -8.257719999999999505e-01 -2.008409999999999918e-01 -4.555560000000000165e-01 -1.769179999999999919e-01 -1.015810000000000046e-01 3.184270000000000156e-01 1.886049999999999949e-01 -2.268550000000000011e-01 3.910319999999999907e-01 -4.853129999999999944e-01 -6.055810000000000359e-01 1.585900000000000157e-02 -5.084100000000000286e-01 2.372630000000000017e-01 6.014499999999999708e-02 -6.871660000000000545e-01 3.137090000000000156e-01 -9.281040000000000401e-01 6.572299999999999809e-01 -1.481089999999999907e-01 -1.802819999999999978e-01 -8.823220000000000507e-01 5.861950000000000216e-01 -5.565400000000000208e-02 -2.042799999999999894e-01 -4.971639999999999948e-01 7.431799999999999518e-01 -1.538875999999999911e+00 -2.389280000000000015e-01 -1.876349999999999962e-01 -5.653199999999999892e-02 -1.282709999999999961e-01 3.535309999999999842e-01 -6.655500000000000305e-02 -6.108339999999999881e-01 -3.152769999999999739e-01 -7.483499999999999874e-02 -3.083629999999999982e-01 1.282010000000000094e-01 -4.022390000000000132e-01 -3.126809999999999867e-01 3.753969999999999807e-01
-5.523230000000000084e-01 7.906130000000000102e-01 2.875700000000000131e-02 -6.054559999999999942e-01 -9.650849999999999707e-01 -7.995000000000000370e-03 5.342999999999999659e-03 1.522449999999999914e-01 -1.186340000000000033e-01 4.309009999999999785e-01 4.339109999999999912e-01 -1.005039999999999961e-01 -1.848370000000000013e-01 -2.155600000000000016e-01 1.667260000000000131e-01 6.321729999999999849e-01 -8.850000000000000444e-04 2.195249999999999979e-01 1.178000000000000011e-03 -2.513690000000000091e-01 1.884139999999999981e-01 -2.333330000000000126e-01 -3.163610000000000033e-01 4.064500000000000057e-02 -9.328500000000000680e-02 -1.128220000000000056e-01 1.168949999999999989e-01 -5.504250000000000531e-01 -1.660860000000000114e-01 -3.277450000000000085e-01 -2.236190000000000122e-01 3.868369999999999864e-01 4.691460000000000075e-01 1.544169999999999987e-01 -1.552169999999999939e-01 -2.189500000000000127e-02 1.286970000000000058e-01 -1.530690000000000106e-01 1.308279999999999998e-01 -3.990870000000000251e-01 -8.425199999999999356e-02 5.435199999999999754e-02 -1.722279999999999922e-01 1.349170000000000091e-01 2.105049999999999977e-01 4.649269999999999792e-01 -4.604249999999999732e-01 3.592150000000000065e-01 -7.450600000000000278e-02 -8.957700000000000384e-02 6.363399999999999612e-02 -2.479280000000000095e-01 3.115820000000000256e-01 -1.367929999999999979e-01 -6.966400000000000370e-02 5.472160000000000357e-01 -2.878319999999999768e-01 -1.114949999999999969e-01 -2.976329999999999809e-01 -5.709999999999999798e-02 -1.019459999999999950e-01 1.512259999999999993e-01 -4.698800000000000199e-02 8.926699999999999913e-02 1.569200000000000109e-02 -3.888400000000000190e-02 -7.491090000000000249e-01 6.849279999999999813e-01 -2.885769999999999724e-01 -8.653009999999999868e-01 -3.210169999999999968e-01 5.936199999999999810e-02 9.076999999999999999e-03 1.472852000000000050e+00 -1.494360000000000133e-01 2.093359999999999943e-01 2.130039999999999989e-01 -4.793229999999999991e-01 -3.965099999999999875e-02 7.714500000000000524e-02 1.397460000000000091e-01 2.691399999999999904e-01 5.865409999999999791e-01 -8.313500000000000056e-02 -1.798100000000000045e-02 -2.282369999999999954e-01 -3.679410000000000180e-01 7.799479999999999746e-01 5.028909999999999769e-01 5.648050000000000015e-01 -1.533190000000000108e-01 -4.469639999999999724e-01 3.984349999999999836e-01 4.313580000000000192e-01 -8.083709999999999507e-01 -3.344699999999999895e-01 5.219479999999999675e-01 2.898169999999999913e-01 3.686579999999999857e-01 -3.668159999999999754e-01 -1.722120000000000040e-01 4.338199999999999695e-02 -2.829530000000000101e-01 3.965199999999999975e-02 2.093460000000000043e-01 7.493299999999999961e-02 -1.939889999999999948e-01 1.983739999999999948e-01 2.465660000000000074e-01 -3.408309999999999951e-01 4.836200000000000221e-02 -1.686489999999999934e-01 -3.411739999999999773e-01 5.688260000000000538e-01 -2.326959999999999862e-01 -6.634299999999999919e-02 1.470299999999999940e-01 4.967030000000000056e-01 -2.058929999999999927e-01 4.759959999999999747e-01 1.709340000000000026e-01 5.708400000000000279e-02 4.282110000000000083e-01 3.603529999999999789e-01 -1.093699999999999950e-01 5.348819999999999686e-01 -6.920800000000000562e-02 -4.789999999999999813e-01 -6.706299999999999761e-02 7.742019999999999458e-01 -7.904619999999999980e-01 -3.660359999999999725e-01 8.412560000000000038e-01 3.513609999999999789e-01 -6.759309999999999485e-01 -6.570989999999999887e-01 4.434069999999999956e-01 -1.103640000000000038e-01 6.826599999999999335e-02 -1.906370000000000009e-01 -1.426880000000000093e-01 -4.648930000000000007e-01 -1.015339999999999993e-01 -6.545349999999999779e-01 2.435730000000000117e-01 2.311920000000000086e-01 -9.164400000000000324e-01 2.833109999999999795e-01 1.902659999999999907e-01 -4.537479999999999847e-01
-7.172500000000000542e-01 3.864609999999999990e-01 1.114730000000000026e-01 -2.259309999999999929e-01 5.361999999999999579e-03 -3.440380000000000105e-01 4.421699999999999936e-02 1.040589999999999987e-01 -1.553430000000000089e-01 -6.787300000000000277e-02 -2.310699999999999907e-02 -3.014999999999999902e-01 6.771499999999999742e-02 -2.424499999999999919e-02 3.383769999999999833e-01 -4.297199999999999909e-01 1.176460000000000006e-01 2.458539999999999892e-01 -2.345200000000000062e-01 1.189840000000000064e-01 2.281529999999999947e-01 -7.970399999999999707e-02 -4.100730000000000208e-01 -1.151449999999999974e-01 6.806199999999999750e-02 9.054299999999999848e-02 1.507390000000000119e-01 -1.598600000000000021e-02 1.243200000000000034e-02 1.657170000000000032e-01 7.612800000000000122e-02 -1.189859999999999945e-01 3.367129999999999845e-01 -1.025029999999999969e-01 2.578440000000000176e-01 -1.448820000000000108e-01 1.240570000000000006e-01 1.419999999999999873e-01 1.786369999999999902e-01 -1.246879999999999933e-01 2.530870000000000064e-01 2.397489999999999899e-01 1.665590000000000126e-01 1.702599999999999947e-01 7.073400000000000520e-02 1.296180000000000110e-01 -2.597369999999999957e-01 -1.473510000000000097e-01 -3.016530000000000045e-01 -5.298699999999999938e-02 1.444999999999999896e-01 -2.672399999999999776e-01 3.456290000000000195e-01 -1.197200000000000000e-02 1.407229999999999870e-01 1.357500000000000095e-01 -1.276079999999999992e-01 -1.508809999999999873e-01 1.354710000000000081e-01 -6.293400000000000383e-02 1.754989999999999883e-01 2.673050000000000148e-01 2.090059999999999973e-01 1.901190000000000102e-01 -1.492920000000000080e-01 1.756929999999999881e-01 7.924999999999999753e-03 8.055199999999999860e-02 -1.506850000000000134e-01 -1.183278999999999970e+00 -4.208400000000000335e-02 -9.606499999999999762e-02 4.341570000000000151e-01 -7.022389999999999466e-01 -5.162120000000000042e-01 5.314100000000000074e-02 -3.111559999999999881e-01 2.474889999999999868e-01 6.405659999999999688e-01 -1.729199999999999904e-01 -7.697800000000000475e-02 1.986179999999999890e-01 2.094519999999999993e-01 6.432400000000000617e-02 -3.988240000000000118e-01 -4.206329999999999791e-01 -2.002369999999999983e-01 4.932380000000000098e-01 5.569899999999999851e-02 -2.253769999999999940e-01 -1.154690000000000022e-01 -1.319970000000000032e-01 -1.818180000000000074e-01 -2.164689999999999948e-01 6.853040000000000243e-01 3.720499999999999918e-01 -4.743539999999999979e-01 -1.390599999999999892e-01 -3.268530000000000046e-01 7.160609999999999475e-01 9.449000000000000454e-02 -8.940620000000000234e-01 -2.753439999999999777e-01 4.225570000000000159e-01 5.820079999999999698e-01 -4.201030000000000042e-01 -2.062150000000000094e-01 -4.117300000000000126e-02 8.613300000000000123e-02 -8.337300000000000266e-02 3.338690000000000269e-01 -2.695940000000000003e-01 -1.394519999999999926e-01 2.496410000000000018e-01 3.043210000000000082e-01 2.472239999999999993e-01 1.957170000000000021e-01 -1.007939999999999947e-01 -5.692200000000000037e-02 1.881199999999999886e-02 -3.630869999999999931e-01 -6.573200000000000154e-01 -2.581359999999999766e-01 2.637999999999999790e-01 -9.704799999999999538e-02 1.269250000000000100e-01 3.513760000000000217e-01 -3.559869999999999979e-01 -5.970400000000000013e-02 9.710799999999999987e-02 2.680859999999999910e-01 -1.841900000000000134e-02 5.692369999999999930e-01 2.721520000000000050e-01 -2.367620000000000002e-01 4.460939999999999905e-01 -3.593480000000000008e-01 -4.439900000000000097e-02 3.326770000000000005e-01 3.212470000000000048e-01 -1.542939999999999867e-01 1.199830000000000063e-01 -5.121759999999999646e-01 -3.244859999999999967e-01 5.508009999999999851e-01 4.139479999999999826e-01 3.605820000000000136e-01 -3.126659999999999995e-01 -1.871869999999999923e-01 6.967299999999999882e-02
8.470239999999999991e-01 -3.961000000000000111e-03 -4.655999999999999722e-02 4.131239999999999912e-01 6.135230000000000405e-01 -5.799399999999999694e-02 -8.428800000000000181e-02 -2.925360000000000182e-01 -6.115600000000000203e-02 -5.274100000000000316e-02 -1.159250000000000003e-01 -6.667199999999999516e-02 -2.597970000000000002e-01 1.545259999999999967e-01 2.022399999999999892e-02 7.728899999999999659e-02 1.258469999999999867e-01 1.393270000000000064e-01 1.262649999999999884e-01 -1.470950000000000035e-01 1.047209999999999946e-01 -2.952700000000000116e-02 2.601089999999999791e-01 -1.435019999999999907e-01 -5.024700000000000000e-02 -1.519050000000000122e-01 1.671299999999999869e-02 -2.635699999999999849e-02 -5.188000000000000250e-02 2.065349999999999964e-01 -3.723300000000000221e-02 -4.490999999999999853e-02 -6.063799999999999746e-02 -1.299100000000000081e-02 -7.483599999999999974e-02 8.148199999999999887e-02 -1.138600000000000029e-02 1.121950000000000031e-01 1.983250000000000013e-01 -8.053399999999999448e-02 -5.989300000000000179e-02 -2.907699999999999868e-02 1.419080000000000064e-01 3.062199999999999922e-01 3.321700000000000347e-02 -2.079509999999999970e-01 -1.118419999999999970e-01 -3.307999999999999829e-02 -3.874239999999999906e-01 4.956399999999999695e-02 3.079160000000000230e-01 -1.869979999999999976e-01 -1.318500000000000054e-02 1.676890000000000047e-01 2.526400000000000173e-02 1.249370000000000064e-01 6.513199999999999545e-02 -1.265820000000000001e-01 1.883720000000000117e-01 1.652039999999999897e-01 3.884400000000000075e-01 -3.235000000000000028e-03 -4.918299999999999755e-02 4.507300000000000195e-02 -2.201150000000000051e-01 -7.042199999999999849e-02 2.274960000000000038e-01 -3.501070000000000015e-01 1.985800000000000065e-01 1.192692000000000085e+00 1.949609999999999954e-01 1.145520000000000010e-01 3.037230000000000207e-01 -8.451899999999999691e-02 1.059126000000000012e+00 1.565400000000000125e-01 3.692710000000000159e-01 2.473239999999999883e-01 6.416500000000000536e-01 -1.220000000000000077e-02 4.207500000000000129e-02 9.963600000000000234e-02 -2.551869999999999972e-01 1.234940000000000065e-01 -4.440470000000000250e-01 -2.193610000000000004e-01 4.694380000000000219e-01 4.961499999999999938e-02 -3.928050000000000153e-01 5.092100000000000098e-02 1.910469999999999946e-01 2.991530000000000022e-01 -3.211760000000000170e-01 -2.899419999999999775e-01 -2.761480000000000046e-01 -7.250000000000000368e-03 -1.727710000000000079e-01 -2.850150000000000183e-01 -4.749999999999999990e-04 2.009589999999999987e-01 -1.077250000000000013e-01 -6.110100000000000253e-02 -1.180230000000000029e-01 5.891490000000000338e-01 -9.484900000000000275e-02 -1.339950000000000030e-01 -1.157659999999999939e-01 -3.378970000000000029e-01 -7.189299999999999857e-02 -2.963419999999999943e-01 -3.114999999999999991e-01 -1.449769999999999948e-01 4.564499999999999807e-02 -6.347409999999999997e-01 -1.767700000000000105e-01 -1.633680000000000132e-01 -3.464380000000000237e-01 -1.212219999999999964e-01 -1.590149999999999897e-01 -1.462710000000000121e-01 1.978509999999999991e-01 1.648280000000000023e-01 -3.434960000000000235e-01 -6.423500000000000043e-02 -3.481060000000000265e-01 -2.279569999999999930e-01 -2.831830000000000180e-01 8.586679999999999868e-01 2.751439999999999997e-01 -2.835429999999999895e-01 2.578190000000000204e-01 -2.975140000000000007e-01 -8.077609999999999513e-01 -9.534000000000000807e-03 7.135679999999999801e-01 -1.040689999999999948e-01 -1.821100000000000149e-02 2.570410000000000195e-01 -1.352170000000000039e-01 3.087499999999999967e-02 -5.211329999999999574e-01 1.771999999999999921e-03 -3.138329999999999731e-01 -6.421580000000000066e-01 -4.049079999999999901e-01 -4.167239999999999833e-01 2.222530000000000061e-01 -1.675899999999999959e-02 3.696209999999999773e-01 -3.677590000000000026e-01
6.662869999999999626e-01 -8.236000000000000265e-02 1.549540000000000084e-01 4.338250000000000162e-01 5.484560000000000546e-01 7.766399999999999693e-02 -1.830800000000000136e-02 6.097099999999999742e-02 -3.093600000000000169e-02 -3.765700000000000297e-02 -9.114800000000000679e-02 8.776499999999999579e-02 8.910400000000000265e-02 1.079709999999999975e-01 -3.522959999999999980e-01 1.203520000000000006e-01 -1.590149999999999897e-01 1.244360000000000049e-01 -9.141000000000000514e-02 -9.836300000000000598e-02 2.689130000000000131e-01 4.521600000000000064e-01 -1.614770000000000094e-01 -3.254409999999999803e-01 -1.521170000000000022e-01 2.826400000000000093e-02 -3.226680000000000104e-01 -1.620449999999999946e-01 -1.256740000000000079e-01 -6.870600000000000318e-02 -6.164000000000000208e-03 -8.583399999999999364e-02 5.408500000000000113e-02 3.062449999999999894e-01 -1.100570000000000020e-01 1.895850000000000035e-01 -5.343300000000000133e-02 1.856190000000000062e-01 4.029760000000000009e-01 -1.996789999999999954e-01 -1.354670000000000041e-01 -1.211499999999999938e-01 1.801949999999999941e-01 -8.870100000000000207e-02 2.381050000000000111e-01 -2.751609999999999889e-01 2.224470000000000058e-01 1.458840000000000137e-01 -3.056400000000000228e-01 -1.965300000000000033e-02 3.810540000000000038e-01 1.506770000000000054e-01 -4.308330000000000215e-01 -6.685499999999999776e-02 -7.946999999999999897e-02 -3.866800000000000098e-02 4.932799999999999685e-02 1.372960000000000014e-01 1.882830000000000059e-01 1.209599999999999981e-01 3.559899999999999731e-01 2.579199999999999895e-02 -9.464500000000000690e-02 -9.801500000000000490e-02 -2.947500000000000120e-02 -2.081729999999999969e-01 -1.710520000000000096e-01 3.692559999999999731e-01 2.288310000000000066e-01 6.001539999999999653e-01 9.963800000000000434e-02 -8.147100000000000175e-02 -9.929949999999999610e-01 5.772040000000000504e-01 -2.802430000000000199e-01 -3.476279999999999926e-01 3.635869999999999935e-01 -5.467530000000000445e-01 -3.752030000000000087e-01 -9.898800000000000654e-02 -3.780439999999999912e-01 -1.251670000000000005e-01 -3.530090000000000172e-01 -6.801810000000000356e-01 -8.261859999999999760e-01 -2.722760000000000180e-01 5.675299999999999789e-01 2.048590000000000133e-01 5.430490000000000039e-01 1.316819999999999935e-01 9.743999999999999884e-02 -5.305929999999999813e-01 4.250829999999999886e-01 1.355949999999999933e-01 -2.298499999999999849e-02 -5.931229999999999558e-01 5.965920000000000112e-01 -7.537000000000000297e-03 2.645049999999999901e-01 -8.787099999999999911e-01 -3.021469999999999989e-01 7.068399999999999683e-02 1.334650000000000003e-01 -5.250540000000000207e-01 -1.499590000000000090e-01 2.162759999999999960e-01 1.672960000000000003e-01 -2.953009999999999802e-01 7.836729999999999530e-01 -4.477400000000000130e-02 2.636100000000000110e-01 2.476820000000000133e-01 2.501990000000000047e-01 -2.216399999999999967e-02 1.624999999999999925e-03 -6.357669999999999710e-01 -1.805070000000000008e-01 -1.937439999999999996e-01 6.156179999999999986e-01 -1.434900000000000064e-02 5.737820000000000142e-01 -9.565899999999999403e-02 -5.468840000000000368e-01 4.295729999999999826e-01 2.911210000000000186e-01 4.039240000000000053e-01 -4.459239999999999871e-01 8.887200000000000655e-02 2.523440000000000127e-01 -2.817129999999999912e-01 -4.206500000000000239e-01 2.856679999999999775e-01 -9.502009999999999623e-01 -3.118100000000000038e-02 -4.748399999999999843e-02 2.721250000000000058e-01 3.263150000000000217e-01 1.047420000000000018e-01 2.641399999999999998e-02 3.951990000000000225e-01 -1.432600000000000019e-02 2.678050000000000153e-01 -3.037500000000000200e-01 -3.224620000000000264e-01 -9.981299999999999895e-02 -1.057499999999999933e-02 5.177920000000000300e-01 -3.117559999999999776e-01 -1.434900000000000064e-01 -6.798400000000000276e-02
7.124600000000000377e-02 -2.074630000000000085e-01 -7.198000000000000231e-02 2.718530000000000113e-01 -1.897790000000000032e-01 1.091199999999999982e-02 -2.393029999999999879e-01 -1.861430000000000029e-01 -1.131920000000000009e-01 -3.103300000000000156e-02 1.996709999999999874e-01 -1.381999999999999895e-01 1.756729999999999958e-01 -2.035659999999999969e-01 -1.391189999999999927e-01 -1.446000000000000063e-02 4.119200000000000084e-01 -3.528069999999999817e-01 1.741449999999999942e-01 -6.748300000000000132e-02 -1.084650000000000059e-01 5.110800000000000065e-02 -5.858999999999999625e-03 -2.148600000000000163e-02 6.196000000000000119e-02 -8.002499999999999891e-02 -2.376540000000000041e-01 2.643380000000000174e-01 2.663530000000000064e-01 2.207020000000000093e-01 2.585000000000000145e-02 9.331799999999999817e-02 8.641999999999999682e-02 2.433869999999999922e-01 1.948100000000000109e-01 -6.826200000000000323e-02 -2.112940000000000096e-01 -3.097899999999999959e-02 1.781590000000000118e-01 2.393899999999999847e-02 5.516499999999999876e-02 -2.025289999999999868e-01 4.112370000000000192e-01 2.390700000000000047e-01 1.743099999999999858e-02 -2.515689999999999871e-01 -3.022020000000000262e-01 2.885820000000000052e-01 -2.130279999999999951e-01 2.800830000000000264e-01 1.936720000000000108e-01 2.438999999999999849e-02 -3.553310000000000080e-01 -5.840000000000000052e-02 6.765000000000000180e-03 -1.816879999999999884e-01 2.708100000000000090e-02 -4.892999999999999780e-03 -1.119649999999999951e-01 -3.525799999999999768e-02 4.694320000000000159e-01 4.970499999999999918e-02 2.669600000000000098e-02 -3.131970000000000032e-01 5.124499999999999889e-02 1.038639999999999980e-01 5.328779999999999628e-01 1.124099999999999960e-01 -2.993129999999999957e-01 -1.520467999999999931e+00 -2.352899999999999991e-01 -1.418929999999999914e-01 1.292040000000000133e-01 -4.789579999999999949e-01 -5.991189999999999571e-01 8.378199999999999537e-02 -4.209939999999999793e-01 5.250089999999999479e-01 2.092749999999999888e-01 7.542579999999999840e-01 5.958499999999999908e-02 -8.814099999999999713e-02 -3.613990000000000258e-01 -4.635000000000000231e-02 -2.712799999999999934e-02 -1.562749999999999972e-01 3.594490000000000185e-01 -7.515199999999999658e-02 -1.391930000000000112e-01 1.300630000000000119e-01 8.632299999999999696e-02 1.571849999999999914e-01 1.467080000000000051e-01 9.457699999999999441e-02 3.402220000000000244e-01 4.257000000000000228e-01 -1.344760000000000122e-01 -8.828000000000000777e-03 -1.460690000000000044e-01 -2.225679999999999881e-01 -4.933029999999999915e-01 2.447910000000000086e-01 3.602500000000000147e-02 5.422470000000000345e-01 -2.425619999999999998e-01 -5.178599999999999870e-02 -1.068319999999999964e-01 -6.309799999999999853e-01 3.888899999999999996e-02 2.410219999999999863e-01 -1.216399999999999981e-01 -1.925999999999999978e-03 2.140849999999999975e-01 -8.226700000000000679e-02 -1.629069999999999963e-01 1.174319999999999947e-01 -2.131190000000000029e-01 1.490999999999999921e-03 1.062000000000000010e-03 -8.112999999999999379e-02 7.641100000000000669e-02 2.055699999999999888e-02 1.803659999999999985e-01 -8.637200000000000433e-02 -1.196340000000000042e-01 3.049350000000000116e-01 -5.505600000000000493e-01 -5.797080000000000011e-01 -1.501929999999999932e-01 -3.518339999999999801e-01 5.294000000000000095e-03 3.052399999999999905e-02 7.827159999999999673e-01 1.769419999999999882e-01 5.226599999999999996e-02 3.960159999999999791e-01 5.167999999999999677e-02 6.383010000000000073e-01 4.903899999999999926e-02 8.922480000000000411e-01 -5.098420000000000174e-01 -2.116300000000000125e-02 -1.768280000000000129e-01 1.590330000000000077e-01 -1.074729999999999991e-01 -1.690919999999999923e-01 2.888580000000000036e-01 -1.112159999999999954e-01 -9.916700000000000514e-02 1.127210000000000018e-01
-3.831539999999999946e-01 -9.764249999999999874e-01 8.921890000000000098e-01 -2.698980000000000268e-01 -6.220109999999999806e-01 1.011346999999999996e+00 4.859499999999999931e-01 2.511169999999999791e-01 3.073159999999999781e-01 1.331799999999999998e-02 1.525910000000000044e-01 -7.936699999999999311e-02 4.837000000000000154e-03 2.545270000000000032e-01 3.814690000000000025e-01 2.190439999999999887e-01 -2.068029999999999868e-01 3.483300000000000285e-02 4.023600000000000093e-02 -2.217399999999999927e-02 -1.747849999999999959e-01 -1.490170000000000106e-01 -1.461699999999999978e-02 1.723099999999999979e-02 1.033749999999999947e-01 -8.216199999999999892e-02 -2.199709999999999999e-01 -1.618020000000000014e-01 -1.883569999999999967e-01 -2.146689999999999987e-01 4.008699999999999763e-02 -1.086270000000000013e-01 2.465050000000000019e-01 2.978890000000000149e-01 8.233799999999999453e-02 -3.788480000000000181e-01 -2.077100000000000127e-02 -3.846900000000000319e-02 -2.116030000000000133e-01 -5.523999999999999744e-02 -5.394700000000000190e-02 -2.035240000000000105e-01 2.639900000000000024e-01 5.212200000000000166e-02 2.725899999999999851e-02 -2.001199999999999923e-01 -6.620000000000000329e-01 5.353360000000000340e-01 4.338000000000000189e-02 3.162409999999999943e-01 9.802999999999999214e-03 -1.041170000000000012e-01 -3.031220000000000026e-01 5.358700000000000269e-02 -1.386560000000000015e-01 -3.660370000000000013e-01 -7.095999999999999530e-02 -7.919500000000000151e-02 -3.378260000000000152e-01 1.083899999999999968e-02 1.582040000000000113e-01 -8.604199999999999349e-02 5.022659999999999902e-01 -3.443709999999999827e-01 3.962399999999999811e-01 2.150749999999999884e-01 -7.626939999999999831e-01 -7.915099999999999913e-02 2.924619999999999997e-01 -1.691969999999999863e-01 -9.690100000000000102e-02 5.911389999999999700e-01 1.079334000000000016e+00 3.108400000000000052e-02 9.063660000000000050e-01 1.798810000000000131e-01 -1.470849999999999935e-01 -1.019980000000000053e-01 3.726369999999999960e-01 2.697330000000000005e-01 -7.365340000000000220e-01 2.763349999999999973e-01 2.873839999999999728e-01 2.283599999999999866e-02 7.762900000000000356e-02 -1.193410000000000026e-01 -2.264210000000000111e-01 4.378540000000000210e-01 3.138540000000000219e-01 -2.535240000000000271e-01 -5.278209999999999846e-01 -9.995300000000000018e-02 -2.346840000000000037e-01 -3.882530000000000148e-01 -4.435359999999999858e-01 -4.935699999999999810e-02 -3.579919999999999769e-01 4.615799999999999764e-02 -5.090440000000000520e-01 5.054020000000000179e-01 1.447070000000000023e-01 -2.949749999999999872e-01 -9.005900000000000016e-02 1.607453000000000021e+00 7.388639999999999652e-01 2.734599999999999878e-02 -8.160089999999999844e-01 2.121300000000000130e-01 -5.950710000000000166e-01 -3.794500000000000095e-01 -1.057395000000000085e+00 -2.302440000000000042e-01 4.064519999999999800e-01 -2.213340000000000030e-01 1.312730000000000008e-01 -1.160899999999999953e-02 4.575089999999999990e-01 -3.999539999999999762e-01 -3.483510000000000217e-01 -2.729949999999999877e-01 4.084889999999999910e-01 -2.690379999999999994e-01 -2.181629999999999958e-01 9.914499999999999702e-02 2.632160000000000055e-01 4.954879999999999840e-01 -5.143999999999999961e-02 3.046470000000000011e-01 -1.783319999999999905e-01 -8.512599999999999334e-02 6.715569999999999595e-01 -4.731420000000000070e-01 3.491380000000000039e-01 2.191299999999999845e-02 -7.241610000000000547e-01 -2.968120000000000203e-01 -3.997699999999999865e-02 -8.108700000000000629e-02 1.032440000000000024e-01 8.362680000000000113e-01 -5.250280000000000502e-01 8.456600000000000228e-02 2.748280000000000167e-01 -2.283139999999999892e-01 -2.655779999999999808e-01 7.077400000000000357e-02 -1.680919999999999914e-01 3.239980000000000082e-01 -1.361829999999999985e-01 1.464560000000000028e-01