1.176521446308840702e+01 -1.971972776774796099e+00 3.831690158818887415e+00 -1.971972776774796099e+00 9.102034967682065769e+00 2.266471495876428488e+00 3.831690158818887415e+00 2.266471495876428488e+00 6.782676639562703613e+00
8.178632465936294338e+00 4.784107200855049202e-02 1.318481555058284398e-02 4.784107200855049202e-02 9.389160860524459196e+00 3.137622851708007921e-01 1.318481555058284398e-02 3.137622851708007921e-01 6.432481581675936866e+00
1.017736650199692683e+01 -3.410003092031929639e-01 -1.075110179253961684e+00 -3.410003092031929639e-01 6.240981075142718382e+00 -8.878835281273683711e-01 -1.075110179253961684e+00 -8.878835281273683711e-01 9.017556795209022980e+00
1.000203626645105892e+01 1.193671355334945255e-01 -1.666502792731589855e+00 1.193671355334945255e-01 8.773141077578911151e+00 2.150850369065871792e+00 -1.666502792731589855e+00 2.150850369065871792e+00 7.397930193451288439e+00
8.475293653709805142e+00 1.540233919914621719e-01 6.994990197591396397e-01 1.540233919914621719e-01 9.850118585423549789e+00 5.390109248352135118e-01 6.994990197591396397e-01 5.390109248352135118e-01 1.039540123698428786e+01
5.322300814696167670e+00 -1.226346767786389735e+00 6.838395681431008732e-01 -1.226346767786389735e+00 3.039744184394274740e+00 -2.707331316399877785e+00 6.838395681431008732e-01 -2.707331316399877785e+00 4.019189246943512650e+00
6.497202396020876236e+00 -2.123566938867141207e+00 5.835089678470816166e-01 -2.123566938867141207e+00 7.210987330864311318e+00 2.826431690706132649e+00 5.835089678470816166e-01 2.826431690706132649e+00 7.112989472363939747e+00
8.213254667769508188e+00 2.189825887096802592e+00 1.748097673642127425e+00 2.189825887096802592e+00 7.984333804402457879e+00 -2.804727543196262385e+00 1.748097673642127425e+00 -2.804727543196262385e+00 6.038469573272379876e+00
6.097554347220537352e+00 1.637686904418929890e-01 6.392393612569708949e-01 1.637686904418929890e-01 7.494089102214944731e+00 -1.125255614204198285e+00 6.392393612569708949e-01 -1.125255614204198285e+00 8.294787115201330607e+00
3.766072572688758946e+00 2.071196601766311041e+00 -1.720059365928016781e+00 2.071196601766311041e+00 6.789430806805577312e+00 2.637252574426977692e+00 -1.720059365928016781e+00 2.637252574426977692e+00 5.641369945557796584e+00
1.388881545658030170e+01 7.440197658541770620e-01 -1.232692279532214830e+00 7.440197658541770620e-01 5.208819453474318628e+00 1.671003678969907646e+00 -1.232692279532214830e+00 1.671003678969907646e+00 5.778303591693553010e+00
8.026697757596409133e+00 2.212926274221586331e-01 -2.767732869171854460e-01 2.212926274221586331e-01 9.016728132673343055e+00 -3.673472372211893378e-01 -2.767732869171854460e-01 -3.673472372211893378e-01 7.592484264670779304e+00
5.533053535756968344e+00 5.333919117508066909e-01 -1.207962946190032527e+00 5.333919117508066909e-01 8.399584547110913846e+00 -4.824632204312286343e-01 -1.207962946190032527e+00 -4.824632204312286343e-01 3.576388312809086756e+00
9.811029551976773178e+00 -1.575559917326084358e+00 2.001078129397865002e+00 -1.575559917326084358e+00 2.358787907813677975e+00 -1.544916430818294106e+00 2.001078129397865002e+00 -1.544916430818294106e+00 5.085592793802039324e+00
9.860891198387392365e+00 -2.053437114957110121e-01 -1.655395309290999539e-01 -2.053437114957110121e-01 6.984790837477580006e+00 -2.053806040058611782e+00 -1.655395309290999539e-01 -2.053806040058611782e+00 6.313125797684026708e+00
8.938731690445143485e+00 -1.257308097458550433e+00 1.123337203676390450e+00 -1.257308097458550433e+00 1.162607294211443332e+01 -1.243442189412887977e+00 1.123337203676390450e+00 -1.243442189412887977e+00 1.024065702210220152e+01
4.101067916393667190e+00 -1.303974284913088644e+00 1.388089208055420798e+00 -1.303974284913088644e+00 8.109359683415904740e+00 -7.415564813303057168e-01 1.388089208055420798e+00 -7.415564813303057168e-01 5.904515706802596853e+00
6.828491461398392914e+00 1.319327244906341567e+00 5.611010247589622857e-01 1.319327244906341567e+00 6.929996946248424550e+00 4.675756736429467764e-01 5.611010247589622857e-01 4.675756736429467764e-01 4.766279604796340053e+00
8.523475271965894606e+00 -1.367571296641147516e+00 5.078078073272994430e+00 -1.367571296641147516e+00 8.139901006049434784e+00 -2.845547686734700155e-01 5.078078073272994430e+00 -2.845547686734700155e-01 5.499464324207958832e+00
1.060064846037652941e+01 2.270847515157314866e+00 -2.371495958617704680e+00 2.270847515157314866e+00 6.168535536749416792e+00 2.569103594523470147e+00 -2.371495958617704680e+00 2.569103594523470147e+00 7.031576216118756051e+00
9.366911839018525754e+00 1.402006198038214135e+00 -3.887971101995633116e+00 1.402006198038214135e+00 1.016767796125442125e+01 5.991218781426232098e+00 -3.887971101995633116e+00 5.991218781426232098e+00 6.933606736472347265e+00
9.608075339984631924e+00 -7.423908196367783041e-03 -7.744646003842357018e-01 -7.423908196367783041e-03 7.745497369461206816e+00 1.047054844227473858e+00 -7.744646003842357018e-01 1.047054844227473858e+00 6.578973225825976101e+00
7.018714919503335814e+00 1.390643304911969524e+00 -9.194805441282699610e-01 1.390643304911969524e+00 1.472636057355049388e+01 -2.059896142118781803e+00 -9.194805441282699610e-01 -2.059896142118781803e+00 8.304157812779466852e+00
7.621487453419586444e+00 4.608612367956202438e-01 6.992719889274464640e-01 4.608612367956202438e-01 7.393361197963462139e+00 3.202133662533631409e+00 6.992719889274464640e-01 3.202133662533631409e+00 7.625222110600939907e+00
6.816044496050812640e+00 3.051805197327976504e+00 -1.212185719659526040e+00 3.051805197327976504e+00 1.320341505146931027e+01 9.717260142716686033e-01 -1.212185719659526040e+00 9.717260142716686033e-01 7.132979537094525924e+00
8.751930722127974960e+00 -3.299893138660725533e+00 2.648950338029969931e+00 -3.299893138660725533e+00 5.571160660856673275e+00 -2.151190915313411889e+00 2.648950338029969931e+00 -2.151190915313411889e+00 7.374608451265603826e+00
8.472819017644349415e+00 -9.632350611663428319e-01 3.667944171460163716e+00 -9.632350611663428319e-01 9.486131404511420229e+00 -4.622466924460279181e+00 3.667944171460163716e+00 -4.622466924460279181e+00 7.982727561268228023e+00
7.660758111531717596e+00 7.178771655847046018e-01 -4.301099106427756780e-02 7.178771655847046018e-01 9.268811816643893309e+00 1.129835961233608410e+00 -4.301099106427756780e-02 1.129835961233608410e+00 1.067080098736972893e+01
1.415751779743079375e+01 -1.304405643493305789e+00 -1.784825586439295453e+00 -1.304405643493305789e+00 7.888231653346724492e+00 2.879659069196604526e-01 -1.784825586439295453e+00 2.879659069196604526e-01 8.010266401152614790e+00
4.792870590958407284e+00 -2.508003921944036652e+00 -5.935323790663364907e-01 -2.508003921944036652e+00 8.700150665189546828e+00 2.390577900021518820e-01 -5.935323790663364907e-01 2.390577900021518820e-01 9.373421948117329094e+00
7.351229951371996307e+00 -1.043008019652542639e+00 -3.635705793359728766e+00 -1.043008019652542639e+00 1.083695350154440185e+01 2.477229892708022074e+00 -3.635705793359728766e+00 2.477229892708022074e+00 7.502523297612347264e+00
1.197565501675562949e+01 6.062568896056614420e+00 2.209719463723919919e+00 6.062568896056614420e+00 7.225381085593659769e+00 3.574197465283247332e+00 2.209719463723919919e+00 3.574197465283247332e+00 8.268877221534342681e+00
1.808768825526740187e+01 -5.505554426268129964e-01 3.887244603334214510e+00 -5.505554426268129964e-01 8.688810475146471646e+00 4.763600640982360801e+00 3.887244603334214510e+00 4.763600640982360801e+00 8.816509642203106623e+00
1.108011487382940707e+01 8.878040673362757040e-01 5.548463253458145727e-01 8.878040673362757040e-01 9.127615666643096759e+00 -2.657963462048190117e-01 5.548463253458145727e-01 -2.657963462048190117e-01 8.825051677245562942e+00
1.162799702841303251e+01 2.005334957492112657e+00 1.550348143466554030e+00 2.005334957492112657e+00 9.741501359770728286e+00 -1.825747893851995762e+00 1.550348143466554030e+00 -1.825747893851995762e+00 7.064756772170718513e+00
1.553725794665069593e+01 -8.888540849328567806e-01 -3.775114075560940918e+00 -8.888540849328567806e-01 8.367896718777334542e+00 2.206455895518329990e-01 -3.775114075560940918e+00 2.206455895518329990e-01 9.712208706711512818e+00
1.149352099103035663e+01 4.343587926579139946e+00 6.779821726854161845e+00 4.343587926579139946e+00 9.687161530204960513e+00 -3.267768275976137282e-01 6.779821726854161845e+00 -3.267768275976137282e-01 1.179018217880386565e+01
6.804341056677028376e+00 -1.538531188676922845e+00 -6.272918637391160512e-01 -1.538531188676922845e+00 1.138497755039783499e+01 1.392709285480377535e+00 -6.272918637391160512e-01 1.392709285480377535e+00 4.574750719409160560e+00
3.805808644005861829e+00 -1.888238130275549986e+00 -2.965822945594967841e+00 -1.888238130275549986e+00 1.314940441660949588e+01 4.077814283457490419e+00 -2.965822945594967841e+00 4.077814283457490419e+00 4.655749644386503405e+00
1.816237572312367021e+01 5.929137200499725591e-01 3.970400321212643302e+00 5.929137200499725591e-01 2.714494139139798090e+00 1.741899731936902951e+00 3.970400321212643302e+00 1.741899731936902951e+00 6.011946696359821374e+00
1.731412042666835305e+01 -3.173295071137802736e+00 -3.502069770054316411e+00 -3.173295071137802736e+00 7.821825135076461599e+00 -9.945766674815897934e-01 -3.502069770054316411e+00 -9.945766674815897934e-01 1.208850636741952833e+01
1.058738985980564529e+01 4.963745346432297256e-01 -3.507058772580774475e-01 4.963745346432297256e-01 9.184407429191152161e+00 1.440680900217151672e-01 -3.507058772580774475e-01 1.440680900217151672e-01 8.244880062624371675e+00
1.269143782291796541e+01 -1.725366211618845291e+00 4.681443858763381982e+00 -1.725366211618845291e+00 6.633852253617016359e+00 1.382390734179921310e-01 4.681443858763381982e+00 1.382390734179921310e-01 4.578888356316769048e+00
3.356088945275585989e+00 -1.489549286739114020e+00 1.897977752955188446e+00 -1.489549286739114020e+00 1.634629934270180840e+01 -5.132661960982833449e+00 1.897977752955188446e+00 -5.132661960982833449e+00 9.016478398758481561e+00
8.506113089112156800e+00 -2.906846011291865373e-01 2.316980180157374392e+00 -2.906846011291865373e-01 1.309199967081586813e+01 4.963688588724373685e-01 2.316980180157374392e+00 4.963688588724373685e-01 7.922303305413081809e+00
1.360037278491408586e+01 -1.841787622111120543e-02 6.047000256773252147e+00 -1.841787622111120543e-02 5.694466781320044468e+00 3.710983541378403139e+00 6.047000256773252147e+00 3.710983541378403139e+00 1.150718257132749400e+01
7.579350531057327700e+00 5.836508621168897681e-01 -1.241767837029150723e+00 5.836508621168897681e-01 4.128510268174583331e+00 -3.770374806949345015e+00 -1.241767837029150723e+00 -3.770374806949345015e+00 5.199102533877850263e+00
6.117777118553608950e+00 1.818857508110106824e+00 -1.456028184439612128e+00 1.818857508110106824e+00 7.551647093819964240e+00 -8.725475954464924078e-01 -1.456028184439612128e+00 -8.725475954464924078e-01 4.303908612969959968e+00
3.543298569089802008e+00 -3.149973328952118123e+00 1.195930312110292659e+00 -3.149973328952118123e+00 1.199781890169967902e+01 -1.808414089852219409e-01 1.195930312110292659e+00 -1.808414089852219409e-01 4.247173608129828359e+00
5.539467156752301946e+00 1.349652888249761373e+00 8.120438788002534158e-01 1.349652888249761373e+00 1.011285569117130301e+01 -4.641974548673518441e+00 8.120438788002534158e-01 -4.641974548673518441e+00 4.625747519978246736e+00
8.734210965714320096e+00 -6.071031470307978184e-01 1.165661426474796203e+00 -6.071031470307978184e-01 7.955398724903159469e+00 6.108877509951235574e+00 1.165661426474796203e+00 6.108877509951235574e+00 4.503446010945117983e+00
9.793553853707187784e+00 2.400033734161540533e+00 4.987538177593743960e+00 2.400033734161540533e+00 6.915977792391369228e+00 3.596594056829782282e+00 4.987538177593743960e+00 3.596594056829782282e+00 5.712765466354516875e+00
4.434854320919807691e+00 6.090896668081133836e-01 2.097146225828844468e+00 6.090896668081133836e-01 1.184995372101789357e+01 -3.931044526538626016e+00 2.097146225828844468e+00 -3.931044526538626016e+00 8.914921831971318156e+00
5.205646697601405748e+00 -1.937129219880681763e+00 -4.733218239931017202e+00 -1.937129219880681763e+00 1.873840970083725566e+01 -7.242567319552835059e-01 -4.733218239931017202e+00 -7.242567319552835059e-01 7.857985470794397465e+00
8.983059460333240764e+00 1.162153800125136138e+00 -2.678220288006015970e+00 1.162153800125136138e+00 9.315778819950423895e+00 -9.275855448197174447e-01 -2.678220288006015970e+00 -9.275855448197174447e-01 9.267994505649795656e+00
4.617069266436773844e+00 3.905441124494424820e-01 1.380648272546675992e+00 3.905441124494424820e-01 5.828329835457149777e+00 -1.207378341798422516e+00 1.380648272546675992e+00 -1.207378341798422516e+00 7.646114622887507650e-01
1.217322292226584723e+00 1.666298464983065886e+00 6.415210211154875886e-01 1.666298464983065886e+00 8.048350823169149848e+00 -1.099442208640680763e+00 6.415210211154875886e-01 -1.099442208640680763e+00 4.854452704055188583e+00
1.626784316303942646e+01 2.305061061493481223e+00 -4.519411954183942370e+00 2.305061061493481223e+00 1.187086326061683828e+01 -8.979239666590003166e-01 -4.519411954183942370e+00 -8.979239666590003166e-01 9.079672430760282964e+00
9.874263314374122302e+00 8.558721808586264856e-01 -4.240084570410208031e-01 8.558721808586264856e-01 1.283409264601238853e+01 -2.103054703223659949e+00 -4.240084570410208031e-01 -2.103054703223659949e+00 9.110236456476982880e+00
1.486711401342948768e+01 1.471886288033382506e+00 2.491663377832918080e-01 1.471886288033382506e+00 2.148977364704403037e+00 -1.767565567459819631e+00 2.491663377832918080e-01 -1.767565567459819631e+00 2.070345236147461687e+00
-2.265597427174409761e-01 3.077119135061768818e-01 -6.459481223335050704e-01 3.077119135061768818e-01 5.956891719674219488e+00 9.048313797132660763e-02 -6.459481223335050704e-01 9.048313797132660763e-02 2.309414377691198172e+00
-3.895599337940524265e+00 -1.855869209446891599e+00 5.162113535624234667e-02 -1.855869209446891599e+00 1.330430755307376955e+01 1.950660257449596591e+00 5.162113535624234667e-02 1.950660257449596591e+00 5.326847107100823209e+00
1.408436846345924387e+01 -6.005873621612027868e-01 -3.171274496735732917e+00 -6.005873621612027868e-01 1.016521467673054779e+01 4.618737943049718631e+00 -3.171274496735732917e+00 4.618737943049718631e+00 9.782321503309168165e+00
5.883770764556630617e+00 9.400098070841280684e-01 -1.637000136153057728e+00 9.400098070841280684e-01 1.166209705933335350e+01 -1.857293827915766471e+00 -1.637000136153057728e+00 -1.857293827915766471e+00 5.770499406854098901e+00
8.040631774891579653e+00 3.401659708967204598e-01 7.352353753988877472e+00 3.401659708967204598e-01 4.521551719772650024e+00 -2.027391002791107510e+00 7.352353753988877472e+00 -2.027391002791107510e+00 5.696214918724082921e+00
1.093143805792432133e+01 3.186394750126499975e+00 1.403765686983836414e+00 3.186394750126499975e+00 4.707455916304631671e+00 -3.836378345493351993e+00 1.403765686983836414e+00 -3.836378345493351993e+00 9.511354529912534161e+00
1.688132587644080473e+01 -1.461698279461150163e+00 -8.475015540940979974e+00 -1.461698279461150163e+00 1.983721622314919664e+00 1.063219439444029968e+00 -8.475015540940979974e+00 1.063219439444029968e+00 7.359896853371883374e+00
4.695321118350629597e+00 5.358200064957655329e+00 -2.011493168801790965e+00 5.358200064957655329e+00 1.219771954900554611e+01 -1.101984953955644775e+00 -2.011493168801790965e+00 -1.101984953955644775e+00 5.470739248227975970e+00
1.021894719882153701e+01 -2.049901109753488715e+00 1.221142085969822988e+00 -2.049901109753488715e+00 4.011475874436735367e+00 -1.600011137899442604e+00 1.221142085969822988e+00 -1.600011137899442604e+00 8.932902673841420338e+00
1.370784918063764835e+01 2.629300819546923407e+00 -1.432161568257864115e+00 2.629300819546923407e+00 4.423309803128208095e+00 1.367162641144099799e+00 -1.432161568257864115e+00 1.367162641144099799e+00 9.638747205346383851e+00
9.624779133426461186e+00 -6.079318095664779792e-02 -1.181808994378975353e+00 -6.079318095664779792e-02 1.574053000180720652e+01 2.461525034925645117e-01 -1.181808994378975353e+00 2.461525034925645117e-01 8.215854170792395550e+00
2.701065265445144803e+00 1.123410988696690760e+00 1.547601070403066270e+00 1.123410988696690760e+00 1.020042148295537210e+01 1.792084897282685718e+00 1.547601070403066270e+00 1.792084897282685718e+00 6.879249879594201644e+00
4.600711695013279368e+00 -1.824028135301919429e+00 -4.135990934078873638e-01 -1.824028135301919429e+00 7.909788230815993693e+00 -1.779371170707866323e+00 -4.135990934078873638e-01 -1.779371170707866323e+00 4.452426507292861935e+00
9.879507726586234995e+00 1.032984608433287654e+00 4.964647793988277158e+00 1.032984608433287654e+00 3.248572819156476665e+00 -2.711673281056010243e+00 4.964647793988277158e+00 -2.711673281056010243e+00 5.152453373735689013e+00
1.284019409961414482e+01 6.664490064354013921e-01 2.890545197576293468e+00 6.664490064354013921e-01 6.447278316131540343e+00 -1.281344986764068494e+00 2.890545197576293468e+00 -1.281344986764068494e+00 8.653376638089953943e+00
8.538306061046254669e+00 -1.452282175716674173e+00 5.456004947251087422e+00 -1.452282175716674173e+00 6.052341157088835466e+00 1.168187144477383033e+00 5.456004947251087422e+00 1.168187144477383033e+00 1.185522083631317614e+01
6.940468743360272974e+00 2.200042274522996943e-01 4.645459471940009522e+00 2.200042274522996943e-01 5.939819001130890896e+00 -4.549294887405560317e+00 4.645459471940009522e+00 -4.549294887405560317e+00 4.221036683631147923e+00
4.359400624006571690e+00 5.017665168959433153e-01 -2.841977626906324605e+00 5.017665168959433153e-01 6.327303873123266698e+00 -2.721872641169827300e+00 -2.841977626906324605e+00 -2.721872641169827300e+00 5.850646966212591948e+00
1.895830041287370804e+01 3.863695830316836499e+00 -3.258664339625239936e+00 3.863695830316836499e+00 7.671712349160916267e-01 -3.408243603086307250e-01 -3.258664339625239936e+00 -3.408243603086307250e-01 1.018627746214088603e+01
1.227673762997636508e+01 -3.868344286595755577e+00 4.494188828782826883e-01 -3.868344286595755577e+00 8.415834278889354536e+00 4.341062208576553338e+00 4.494188828782826883e-01 4.341062208576553338e+00 9.991956097523878810e+00
9.487056555150569892e+00 3.516554337116343021e+00 -3.944376912129809454e-01 3.516554337116343021e+00 1.932911554604901028e+01 7.138246652389809155e-01 -3.944376912129809454e-01 7.138246652389809155e-01 1.149353801834273270e+01
6.087530936001281923e+00 -4.163263012736019952e+00 3.608280468891189585e+00 -4.163263012736019952e+00 9.272728098490599535e+00 -2.311866310673484914e+00 3.608280468891189585e+00 -2.311866310673484914e+00 9.610067535532740735e+00
4.721015332727508174e+00 4.648904664810953768e+00 1.066664632314974437e+00 4.648904664810953768e+00 5.870290808924846893e+00 -1.344329015246555681e+00 1.066664632314974437e+00 -1.344329015246555681e+00 4.496368324767082036e+00
-6.940389282569180418e-01 -9.444993417808611458e-01 3.498630252954164632e+00 -9.444993417808611458e-01 1.048909686122407336e+01 -1.656133159494002527e+00 3.498630252954164632e+00 -1.656133159494002527e+00 3.908080357912858460e+00
1.303882337426252924e+01 3.228435184385289869e+00 1.306494327144883227e+00 3.228435184385289869e+00 1.345763850102856729e+01 -4.066848694286708366e+00 1.306494327144883227e+00 -4.066848694286708366e+00 1.020710754094873707e+01
3.966563500157028077e+00 -9.063751893687796990e-01 4.582271115708998366e+00 -9.063751893687796990e-01 1.180689732378727896e+01 -5.438319245462186480e+00 4.582271115708998366e+00 -5.438319245462186480e+00 1.010036331965738476e+01
3.182824690298124537e+00 3.627430519544511345e+00 -1.585049806090860436e+00 3.627430519544511345e+00 8.734103126069264755e-01 1.131635180574777216e-01 -1.585049806090860436e+00 1.131635180574777216e-01 2.596568649387555716e+00
6.171577749894106013e+00 2.394494181868226601e+00 5.863911242554268100e+00 2.394494181868226601e+00 5.429311797214759316e+00 1.128297827348887061e+00 5.863911242554268100e+00 1.128297827348887061e+00 6.297823919627904665e+00
-2.135690385279558345e+00 1.285340729401868831e+00 3.030350783732968623e+00 1.285340729401868831e+00 7.769636422640987305e+00 -3.209069454441859204e+00 3.030350783732968623e+00 -3.209069454441859204e+00 8.585057385062676572e-01
6.247252801868243388e+00 -8.321417831758942674e-01 7.876948221011572659e-01 -8.321417831758942674e-01 1.233233180488723946e+01 -3.691617811434972918e+00 7.876948221011572659e-01 -3.691617811434972918e+00 1.183754648606586279e+01
5.446980471691282411e+00 -1.660049441340710474e-01 1.933701054322114254e+00 -1.660049441340710474e-01 3.873032473270219822e-01 -2.389624370528407038e+00 1.933701054322114254e+00 -2.389624370528407038e+00 3.801409921641806466e+00
3.053070894214666264e+00 -2.558750988598260112e-01 -2.151185239542619421e+00 -2.558750988598260112e-01 7.908919837884767823e+00 -1.521299548551408698e+00 -2.151185239542619421e+00 -1.521299548551408698e+00 5.486943573840079580e+00
8.287209961193569896e+00 4.409687953226615775e+00 -5.640246142940915419e+00 4.409687953226615775e+00 8.630009489737930362e-02 -9.630023545638572990e-01 -5.640246142940915419e+00 -9.630023545638572990e-01 9.217446090973304251e+00
3.425759031751438144e+00 -1.363212304672637876e+00 3.338635950089170468e+00 -1.363212304672637876e+00 1.531171416690508202e+01 1.531612424081072454e+00 3.338635950089170468e+00 1.531612424081072454e+00 9.254571307725935725e+00
4.077848338082244339e+00 2.045973476365196220e+00 4.443481492524149701e+00 2.045973476365196220e+00 8.682623884982831441e+00 -5.504294405152231562e+00 4.443481492524149701e+00 -5.504294405152231562e+00 5.715370645148196260e+00
1.116379276262073006e+01 -6.698544689107994998e-02 2.056235269957729095e+00 -6.698544689107994998e-02 -3.275413539233405835e+00 -1.100350331967453688e+00 2.056235269957729095e+00 -1.100350331967453688e+00 1.842008977172021389e+00
1.433623646813968300e+01 2.312013880714085534e+00 -5.626391586436837455e-01 2.312013880714085534e+00 1.929847205954122069e+00 4.434059713008881687e+00 -5.626391586436837455e-01 4.434059713008881687e+00 5.658811589202626280e+00
1.531309905497841051e+01 -1.634985237521780599e+00 3.647590857398868014e-01 -1.634985237521780599e+00 1.034648744429598821e+01 -1.317777759480035282e+00 3.647590857398868014e-01 -1.317777759480035282e+00 8.671130449128362727e+00
3.980798333304191861e+00 -7.842042230638741618e-01 -2.083132747742581170e+00 -7.842042230638741618e-01 1.192649716592326037e+01 -6.380133947658276350e-01 -2.083132747742581170e+00 -6.380133947658276350e-01 1.142937342953544011e+01
1.225200262086339142e+00 3.915685890774580624e+00 -2.488836843978337487e+00 3.915685890774580624e+00 9.069234688273189349e+00 -2.968507585179739561e+00 -2.488836843978337487e+00 -2.968507585179739561e+00 5.427671499455775539e+00
4.789703510856286428e+00 -1.759273266332225250e+00 -8.354223786938611562e-01 -1.759273266332225250e+00 -8.230599823310868146e+00 1.083351398444424962e+00 -8.354223786938611562e-01 1.083351398444424962e+00 -5.016677584841567672e+00
2.954556540572192525e+00 1.178931378587263934e+00 -3.054359294184524898e-01 1.178931378587263934e+00 7.246619819898559633e+00 2.829388767288936624e+00 -3.054359294184524898e-01 2.829388767288936624e+00 4.263831995405316988e+00
1.432297219179800862e+01 -1.985764899800158467e+00 1.995317222043649641e-01 -1.985764899800158467e+00 1.793255808797143658e+01 -2.442863100560463963e+00 1.995317222043649641e-01 -2.442863100560463963e+00 1.657186582553059040e+01
6.846279327061555620e+00 -1.785273972331889558e+00 4.857960330404848648e+00 -1.785273972331889558e+00 1.272966413920430817e+01 -2.434695666390300772e+00 4.857960330404848648e+00 -2.434695666390300772e+00 9.429112611131671429e+00
-4.582106518356020564e-01 2.683634973341899155e+00 4.336759974315967270e+00 2.683634973341899155e+00 5.131254369826335981e+00 -5.236136938297803134e+00 4.336759974315967270e+00 -5.236136938297803134e+00 1.983999735083743499e+00
1.216996502983105266e+01 -3.057673944327246041e+00 3.886029988384656075e-01 -3.057673944327246041e+00 -7.291662736906491527e-02 -3.122025833570684306e+00 3.886029988384656075e-01 -3.122025833570684306e+00 7.096518385524597683e+00
1.398730143136881310e+01 1.937855718542099925e+00 3.761560334908856440e+00 1.937855718542099925e+00 1.139027304454707945e+01 1.324503547868946640e+00 3.761560334908856440e+00 1.324503547868946640e+00 1.729240492761689652e+01
7.205391020863073592e+00 -5.924993887821323746e-01 2.841154640141437149e+00 -5.924993887821323746e-01 1.284460417351978556e+01 4.584354123589783114e+00 2.841154640141437149e+00 4.584354123589783114e+00 9.866845081948547147e+00
1.345100352497233231e+01 2.747470367443236139e+00 1.194034604665654475e+00 2.747470367443236139e+00 9.833715607833717343e+00 2.145906772705752363e+00 1.194034604665654475e+00 2.145906772705752363e+00 1.107871295844370252e+01
1.099842918058619290e+01 2.023525802881530611e-01 -5.087749586703124827e+00 2.023525802881530611e-01 3.434528097625588305e+00 -1.212753296738759090e+00 -5.087749586703124827e+00 -1.212753296738759090e+00 8.539815816077013011e+00
9.745474399325360082e+00 1.669675548604502291e+00 2.675053207903896446e+00 1.669675548604502291e+00 6.052988194959160850e+00 5.924085764494551043e-01 2.675053207903896446e+00 5.924085764494551043e-01 1.256649708046640113e+00
1.024125865380618805e+01 -1.541005824742378572e+00 -2.723546993553564555e+00 -1.541005824742378572e+00 6.841897632009876773e+00 1.911559872461234377e+00 -2.723546993553564555e+00 1.911559872461234377e+00 2.524202571785346461e+00
1.162778702489371696e+01 3.986814650344061572e+00 1.775670568151267004e+00 3.986814650344061572e+00 6.670841251870632149e+00 6.601324411206173082e+00 1.775670568151267004e+00 6.601324411206173082e+00 8.192821892917120152e+00
8.021754161236291480e+00 -3.370408914984635018e+00 -4.049531917599309416e+00 -3.370408914984635018e+00 9.400535105192290075e+00 5.125266431640427278e+00 -4.049531917599309416e+00 5.125266431640427278e+00 1.112292153714516196e+01
5.824691666379266941e+00 2.625174534180899411e+00 -1.290278649991196014e+00 2.625174534180899411e+00 1.014525866662471643e+01 -9.804496739794801297e-01 -1.290278649991196014e+00 -9.804496739794801297e-01 4.158239955584807745e+00
-2.234789343313641652e+00 -3.581791646603385004e+00 3.993898012292889543e+00 -3.581791646603385004e+00 -3.197275202735397337e-01 -2.179666257378531646e-01 3.993898012292889543e+00 -2.179666257378531646e-01 4.799704218992372873e+00
6.627580526891492241e+00 3.836747270594853543e+00 -3.259254619787641527e-01 3.836747270594853543e+00 6.891509544505634466e+00 5.458377419442281386e+00 -3.259254619787641527e-01 5.458377419442281386e+00 1.618020358623506016e+00
9.789575138381765740e+00 -3.975332566031177794e+00 6.951939476131572704e+00 -3.975332566031177794e+00 1.170656672349125849e+01 6.872694364329059447e+00 6.951939476131572704e+00 6.872694364329059447e+00 4.327695768360615425e+00
9.143394309445774581e+00 4.193787308057171259e+00 6.666590099547176074e-01 4.193787308057171259e+00 1.291430263884959828e+01 -1.022978224526409630e+00 6.666590099547176074e-01 -1.022978224526409630e+00 1.279894259749548802e+01
1.205079654627528818e+01 6.500687319287367094e-01 3.164344380598297590e+00 6.500687319287367094e-01 4.102146312844209497e+00 2.512998600241286962e+00 3.164344380598297590e+00 2.512998600241286962e+00 6.771149149083480978e+00
-7.546050783818726515e+00 1.756758899871223134e+00 2.952649481585969848e+00 1.756758899871223134e+00 -4.911619067475537115e+00 1.562999436562657829e+00 2.952649481585969848e+00 1.562999436562657829e+00 3.143701602226593117e+00
8.040069873583139071e+00 5.431088313472758333e-01 3.880325838738364119e+00 5.431088313472758333e-01 -2.272266457855397714e+00 7.880580714318663471e-01 3.880325838738364119e+00 7.880580714318663471e-01 1.110402122040670347e+00
4.055026063726284491e+00 4.556020675794471231e+00 -3.512019396253271086e+00 4.556020675794471231e+00 1.455971994308768203e+01 1.538786598362577474e+00 -3.512019396253271086e+00 1.538786598362577474e+00 1.043893439896145914e+01
1.216534495240609459e+01 -8.477898832503484305e-01 1.636375801365901550e+00 -8.477898832503484305e-01 2.007528642903348270e+01 -3.447633452385078234e-01 1.636375801365901550e+00 -3.447633452385078234e-01 1.172131237600973286e+01
1.801922710797031613e+01 2.651856332675643024e+00 -7.956863073767581063e-02 2.651856332675643024e+00 5.872691659970001865e+00 3.827739822347425713e-01 -7.956863073767581063e-02 3.827739822347425713e-01 1.126681935404310586e+01
5.916576719736299061e+00 -3.471000600737101482e+00 -7.536345215763842198e-01 -3.471000600737101482e+00 7.972499822300449956e+00 -3.661910827107917044e+00 -7.536345215763842198e-01 -3.661910827107917044e+00 6.025210972701496637e+00
-1.997706721547220843e+00 1.466386466135614741e+00 -4.231366586473189528e+00 1.466386466135614741e+00 8.642524564335019477e+00 1.104925003226071567e+00 -4.231366586473189528e+00 1.104925003226071567e+00 4.740625120815008309e+00
5.754380217803880537e-01 -2.741681081235059381e+00 3.101547652551957857e+00 -2.741681081235059381e+00 1.641430075256471355e+01 -1.717493917529883340e+00 3.101547652551957857e+00 -1.717493917529883340e+00 9.879377183858013112e+00
1.768776776946902984e+01 3.608672097075860563e+00 6.057733139341547890e+00 3.608672097075860563e+00 9.874115744333522571e+00 -5.897977218849833614e-01 6.057733139341547890e+00 -5.897977218849833614e-01 1.087124083290086851e+01
1.518270389679541843e+01 -1.136845538162136293e+00 -8.490385528246610081e-01 -1.136845538162136293e+00 1.245889581778540744e+01 -2.148790064268256028e+00 -8.490385528246610081e-01 -2.148790064268256028e+00 1.028848674256916595e+01
1.108211274514830924e+00 -1.678416235624690556e+00 6.336714301096950663e-01 -1.678416235624690556e+00 1.520154178005516243e+01 -9.830548527731595154e-01 6.336714301096950663e-01 -9.830548527731595154e-01 6.785156951398952252e+00