2.013759999999999994e+00 7.716140000000000221e+00 8.403610000000000468e+00 8.102479999999999905e+00 5.379599999999999937e-01 8.739940000000000708e+00 3.786979999999999791e+00 7.611010000000000275e+00 3.938550000000000217e+00 9.919309999999999405e+00 2.131299999999999861e-01 4.388560000000000016e+00 4.581610000000000404e+00 7.708639999999999937e+00 1.067140000000000022e+01 1.146380000000000088e+01 7.195090000000000430e+00 1.060940000000000083e+01 5.173299999999999566e-01 3.434699999999999975e-01 2.302770000000000206e+00 6.988179999999999836e+00 7.700029999999999930e+00 2.526749999999999829e+00 3.875199999999999978e+00 4.117790000000000283e+00 4.305130000000000123e+00 9.482129999999999725e+00 4.825070000000000192e+00 3.881590000000000096e+00 1.994150000000000089e+00 3.391230000000000189e+00 8.605040000000000688e+00 8.087410000000000210e+00 3.806140000000000079e+00 8.564640000000000697e+00 1.403909999999999991e+00 3.754370000000000207e+00 2.286410000000000053e+00 6.212559999999999860e+00 3.117980000000000196e+00 2.278220000000000134e+00 5.158909999999999663e+00 4.025940000000000296e+00 1.033479999999999954e+01 1.065530000000000044e+01 3.833639999999999937e+00 1.066310000000000002e+01 2.823920000000000208e+00 7.736670000000000158e+00 3.243500000000000272e-01 9.110630000000000450e+00 1.345800000000000052e-01 1.273990000000000045e+01 1.187335000000000029e+01 7.932000000000000162e-02 6.681580000000000297e+00 5.823850000000000193e+00 3.906700000000000172e-01 6.442370000000000374e+00 2.727819999999999911e+00 4.075510000000000410e+00 1.261650000000000027e+01 8.871900000000000119e+00 3.831350000000000033e+00 2.615999999999999992e-01 1.173010000000000019e+01 4.136910000000000309e+00 6.401609999999999800e+00 6.420130000000000337e+00 4.568629999999999747e+00 6.476149999999999629e+00 9.209000000000000519e-01 1.897629999999999928e+00 1.163109999999999999e+01 6.835289999999999644e+00 1.864710000000000090e+00 1.171889999999999965e+01 5.134149999999999991e+00 5.775489999999999569e+00 1.075120000000000076e+00 1.114840000000000053e+01 5.682699999999999640e+00 1.137229999999999963e+00 3.692169999999999952e+00 5.811519999999999797e+00 7.223139999999999894e+00 9.809100000000000819e+00 5.899860000000000326e+00 7.599400000000000155e+00 2.103340000000000209e+00 1.884749999999999925e+00 5.219579999999999664e+00 8.222239999999999327e+00 2.279170000000000140e+00 5.210460000000000313e+00 4.775350000000000428e+00 2.012379999999999836e+00 1.155180000000000007e+01 1.080519999999999925e+01 1.627709999999999990e+00 1.138710000000000022e+01 1.195249999999999924e+00 6.100609999999999644e+00 1.063269999999999937e+00 7.156220000000000248e+00 5.466219999999999857e+00 1.490760000000000085e+00 1.703340000000000076e+00 5.617890000000000050e+00 7.462959999999999816e+00 7.691049999999999720e+00 6.139789999999999637e+00 7.850699999999999790e+00 4.169260000000000410e+00 1.865680000000000005e+00 4.975929999999999964e+00 1.025750000000000028e+01 2.502549999999999830e+00 5.108380000000000365e+00 1.741719999999999935e+00 1.904660000000000020e+00 8.722199999999999953e-01 7.511140000000000150e+00 1.830049999999999955e+00 8.648200000000000331e-01 4.445269999999999833e+00 5.767159999999999620e+00 1.197010000000000041e+01 1.012149999999999928e+01 5.835250000000000270e+00 1.202030000000000065e+01 4.589299999999999713e+00 5.999340000000000117e+00 5.383079999999999643e+00 1.051960000000000051e+01 6.161769999999999747e+00 5.724020000000000330e+00 1.375480000000000036e+00 1.735980000000000079e+00 7.235360000000000014e+00 7.173440000000000261e+00 2.352889999999999926e+00 6.945380000000000109e+00 1.770669999999999966e+00 2.710699999999999776e-01 1.074360000000000070e+01 7.202169999999999739e+00 3.116000000000000020e-02 1.095400000000000063e+01 4.689379999999999882e+00 7.586199999999999832e+00 1.848600000000000021e+00 1.032929999999999993e+01 7.260329999999999728e+00 2.178620000000000001e+00 4.388580000000000148e+00 7.436099999999999710e+00 8.256759999999999877e+00 1.051309999999999967e+01 7.559680000000000177e+00 8.560909999999999798e+00 1.442320000000000046e+00 1.815199999999999869e-01 4.355269999999999975e+00 7.694040000000000212e+00 4.282599999999999740e-01 4.600249999999999950e+00 4.083890000000000242e+00 4.283089999999999620e+00 1.937230000000000008e+00 1.055119999999999969e+01 3.959779999999999855e+00 1.858000000000000096e+00 1.270499999999999963e+00 3.708200000000000163e+00 1.078020000000000067e+01 7.709249999999999936e+00 3.490580000000000016e+00 1.079850000000000065e+01 1.273640000000000105e+00 3.707800000000000207e+00 4.526970000000000383e+00 7.283909999999999663e+00 3.833559999999999857e+00 4.309070000000000178e+00 4.474160000000000359e+00 4.100950000000000095e+00 8.020379999999999399e+00 1.043979999999999997e+01 4.184400000000000119e+00 8.451079999999999259e+00
2.291279999999999983e+00 1.769999999999999907e-01 8.509460000000000690e+00 8.194209999999999994e+00 3.594600000000000017e-01 8.663520000000000110e+00 3.568680000000000074e+00 7.557680000000000398e+00 3.869580000000000020e+00 9.683260000000000645e+00 2.134000000000000133e-02 4.359580000000000233e+00 4.887830000000000119e+00 7.731659999999999755e+00 1.046400000000000041e+01 1.155139999999999922e+01 7.091520000000000046e+00 1.053420000000000023e+01 3.803500000000000214e-01 3.830999999999999961e-01 2.012399999999999967e+00 7.047270000000000145e+00 7.600389999999999979e+00 2.300920000000000076e+00 3.831479999999999997e+00 3.956620000000000026e+00 4.329349999999999810e+00 9.512409999999999144e+00 4.511650000000000382e+00 3.937120000000000175e+00 2.110819999999999919e+00 3.869749999999999801e+00 8.486950000000000216e+00 8.178259999999999863e+00 3.810459999999999958e+00 8.646359999999999602e+00 1.268899999999999917e+00 3.720769999999999911e+00 2.107629999999999892e+00 6.356830000000000425e+00 3.274109999999999854e+00 2.244479999999999809e+00 5.482009999999999827e+00 4.388670000000000293e+00 1.034120000000000061e+01 1.078459999999999930e+01 3.647749999999999826e+00 1.054809999999999981e+01 3.104800000000000004e+00 3.047199999999999909e-01 7.344000000000000528e-02 9.026500000000000412e+00 7.623009999999999842e+00 1.247959999999999958e+01 1.180010000000000048e+01 1.111999999999999933e-01 6.508689999999999642e+00 5.716840000000000366e+00 2.515499999999999958e-01 6.248759999999999870e+00 3.101360000000000117e+00 3.828580000000000094e+00 1.259040000000000070e+01 9.110989999999999256e+00 3.610520000000000174e+00 3.442700000000000204e-01 1.162390000000000079e+01 3.924389999999999823e+00 6.185500000000000220e+00 6.412379999999999747e+00 4.301720000000000432e+00 6.533059999999999867e+00 8.923699999999999966e-01 1.867680000000000007e+00 1.172349999999999959e+01 6.772020000000000373e+00 1.849159999999999915e+00 1.179490000000000016e+01 5.016750000000000043e+00 5.766949999999999577e+00 1.032419999999999893e+00 1.098659999999999926e+01 5.715419999999999945e+00 1.047290000000000054e+00 3.948840000000000128e+00 5.924730000000000274e+00 7.407729999999999926e+00 9.700850000000000861e+00 6.052430000000000199e+00 7.574970000000000425e+00 2.087309999999999999e+00 1.890360000000000040e+00 5.272739999999999760e+00 8.116669999999999163e+00 2.151440000000000019e+00 5.358360000000000234e+00 4.754660000000000331e+00 2.044070000000000054e+00 1.167730000000000068e+01 1.080550000000000033e+01 1.528380000000000072e+00 1.181250000000000000e+01 1.109070000000000000e+00 6.160820000000000185e+00 9.681800000000000406e-01 7.014199999999999768e+00 5.446170000000000400e+00 1.162069999999999936e+00 1.906719999999999970e+00 5.910730000000000040e+00 7.477649999999999686e+00 7.700809999999999711e+00 6.144980000000000331e+00 7.697560000000000180e+00 4.143340000000000245e+00 1.739819999999999922e+00 5.121599999999999930e+00 1.012459999999999916e+01 2.245699999999999807e+00 5.297659999999999592e+00 1.786759999999999904e+00 1.900199999999999889e+00 8.695199999999999596e-01 7.699449999999999683e+00 1.825769999999999893e+00 9.255400000000000293e-01 4.339039999999999786e+00 5.813329999999999664e+00 1.180129999999999946e+01 1.014659999999999940e+01 5.614150000000000418e+00 1.194560000000000066e+01 4.629039999999999822e+00 6.001170000000000115e+00 5.436689999999999579e+00 1.050459999999999994e+01 5.962419999999999831e+00 5.612630000000000230e+00 1.313150000000000039e+00 2.014460000000000139e+00 7.226320000000000299e+00 7.285249999999999559e+00 2.133809999999999985e+00 7.280190000000000161e+00 1.867310000000000025e+00 3.182099999999999929e-01 1.070669999999999966e+01 7.349999999999999645e+00 9.707999999999999963e-02 1.088439999999999941e+01 4.644059999999999633e+00 7.668040000000000411e+00 1.775479999999999947e+00 9.922790000000000887e+00 7.241089999999999804e+00 2.012239999999999807e+00 4.628759999999999764e+00 7.674999999999999822e+00 8.240700000000000358e+00 1.055540000000000056e+01 7.752449999999999619e+00 8.380610000000000781e+00 1.082319999999999949e+00 2.817100000000000160e-01 4.363179999999999836e+00 7.359390000000000320e+00 4.461600000000000010e-01 4.475609999999999644e+00 4.023019999999999818e+00 4.191119999999999735e+00 2.028770000000000184e+00 1.067810000000000059e+01 3.852500000000000036e+00 1.973270000000000080e+00 1.324799999999999978e+00 3.698189999999999866e+00 1.080119999999999969e+01 7.704150000000000276e+00 3.409949999999999815e+00 1.084549999999999947e+01 1.433519999999999905e+00 3.595950000000000202e+00 4.409469999999999779e+00 7.349910000000000387e+00 3.779389999999999805e+00 4.391350000000000087e+00 4.660849999999999937e+00 4.180729999999999613e+00 8.145739999999999981e+00 1.052839999999999954e+01 4.362980000000000302e+00 8.415649999999999409e+00
2.398410000000000153e+00 6.472299999999999720e-01 8.562910000000000466e+00 8.062780000000000058e+00 1.553400000000000059e-01 8.377349999999999852e+00 3.479859999999999953e+00 7.511820000000000164e+00 4.221549999999999692e+00 9.578110000000000568e+00 7.502040000000000042e+00 4.407650000000000290e+00 5.244189999999999685e+00 7.501769999999999605e+00 1.068459999999999965e+01 1.127439999999999998e+01 7.357450000000000045e+00 1.067689999999999984e+01 3.167900000000000160e-01 4.888399999999999967e-01 1.963179999999999925e+00 6.877060000000000173e+00 7.720209999999999795e+00 1.998690000000000078e+00 3.842569999999999819e+00 4.141169999999999796e+00 4.320839999999999570e+00 9.740309999999999135e+00 4.122379999999999711e+00 4.243769999999999598e+00 2.204819999999999780e+00 3.887919999999999821e+00 8.451810000000000045e+00 8.405770000000000408e+00 3.532890000000000086e+00 8.611549999999999372e+00 1.062529999999999974e+00 3.941590000000000149e+00 2.080280000000000129e+00 6.523069999999999702e+00 3.535109999999999975e+00 2.175969999999999960e+00 5.464809999999999945e+00 4.401930000000000121e+00 1.067489999999999917e+01 1.094420000000000037e+01 3.900970000000000049e+00 1.062659999999999982e+01 3.177480000000000082e+00 2.969300000000000272e-01 1.605300000000000060e-01 8.915279999999999205e+00 7.579889999999999795e+00 1.274450000000000038e+01 2.859499999999999820e-01 7.733640000000000292e+00 6.478270000000000195e+00 5.694230000000000125e+00 2.991199999999999970e-01 6.204609999999999737e+00 3.159100000000000019e+00 3.876980000000000093e+00 1.270969999999999978e+01 9.314289999999999736e+00 3.375550000000000050e+00 1.129600000000000048e-01 1.388099999999999890e-01 4.127180000000000071e+00 6.305500000000000327e+00 6.294599999999999973e+00 4.096980000000000288e+00 6.536590000000000344e+00 9.049000000000000377e-01 1.834449999999999914e+00 1.164439999999999920e+01 6.841870000000000118e+00 1.855720000000000036e+00 1.159980000000000011e+01 5.020780000000000243e+00 5.771480000000000388e+00 1.115429999999999922e+00 1.095800000000000018e+01 5.781299999999999883e+00 1.116689999999999960e+00 3.917209999999999859e+00 5.991299999999999848e+00 7.549640000000000128e+00 9.817629999999999413e+00 5.994040000000000035e+00 7.515179999999999971e+00 2.000119999999999898e+00 2.049319999999999808e+00 5.115240000000000009e+00 7.974120000000000097e+00 1.961240000000000094e+00 5.222680000000000433e+00 4.823159999999999670e+00 2.039379999999999971e+00 1.151609999999999978e+01 1.075569999999999915e+01 1.617450000000000054e+00 1.175169999999999959e+01 1.061700000000000088e+00 6.190199999999999925e+00 1.100759999999999961e+00 6.992569999999999730e+00 5.643069999999999808e+00 9.694800000000000084e-01 1.833749999999999991e+00 6.110490000000000421e+00 7.634579999999999700e+00 7.829439999999999955e+00 5.855859999999999843e+00 7.627259999999999707e+00 4.014669999999999739e+00 1.920800000000000063e+00 5.001689999999999969e+00 9.984090000000000131e+00 1.889899999999999913e+00 5.136149999999999771e+00 1.796070000000000055e+00 2.004010000000000069e+00 7.845900000000000096e-01 7.611799999999999677e+00 1.899450000000000083e+00 8.421499999999999542e-01 4.121120000000000339e+00 5.877209999999999823e+00 1.196720000000000006e+01 1.012279999999999980e+01 5.692580000000000418e+00 1.193609999999999971e+01 4.702460000000000306e+00 5.926249999999999574e+00 5.700999999999999623e+00 1.062950000000000017e+01 5.853399999999999714e+00 5.614519999999999733e+00 1.258729999999999905e+00 2.003410000000000135e+00 7.051249999999999574e+00 7.245529999999999582e+00 1.998729999999999896e+00 7.202619999999999578e+00 1.689219999999999944e+00 2.029199999999999893e-01 1.081199999999999939e+01 7.554450000000000109e+00 9.891999999999999404e-02 1.082140000000000057e+01 4.546319999999999695e+00 7.547060000000000102e+00 2.047190000000000065e+00 9.947919999999999874e+00 7.314149999999999707e+00 1.977090000000000014e+00 4.719660000000000188e+00 7.662689999999999557e+00 8.347390000000000754e+00 1.049169999999999980e+01 7.645579999999999821e+00 8.429769999999999541e+00 1.169550000000000090e+00 3.778599999999999737e-01 4.257649999999999935e+00 7.208409999999999762e+00 2.662800000000000167e-01 4.395039999999999836e+00 4.214819999999999567e+00 4.091829999999999856e+00 2.029980000000000118e+00 1.061689999999999934e+01 3.933349999999999902e+00 2.016459999999999919e+00 1.431629999999999958e+00 3.581580000000000208e+00 1.084820000000000029e+01 7.714120000000000310e+00 3.520700000000000163e+00 1.076270000000000060e+01 1.454749999999999988e+00 3.928920000000000190e+00 4.529189999999999827e+00 7.416249999999999787e+00 3.737680000000000113e+00 4.376579999999999693e+00 4.607960000000000278e+00 4.324189999999999756e+00 8.508480000000000487e+00 1.063930000000000042e+01 4.249929999999999986e+00 8.268150000000000333e+00
2.089999999999999858e+00 3.445599999999999774e-01 8.639359999999999928e+00 8.084680000000000533e+00 1.528100000000000014e-01 8.152200000000000557e+00 3.351210000000000022e+00 7.422390000000000043e+00 4.317999999999999616e+00 9.535059999999999647e+00 7.435959999999999681e+00 4.441440000000000055e+00 5.263340000000000352e+00 7.417029999999999568e+00 1.077399999999999913e+01 1.112119999999999997e+01 7.588890000000000136e+00 1.065509999999999913e+01 5.489000000000000545e-01 3.680899999999999728e-01 2.112659999999999982e+00 6.694790000000000241e+00 1.563199999999999867e-01 2.037799999999999834e+00 3.932430000000000092e+00 4.305589999999999584e+00 4.295829999999999593e+00 9.627499999999999503e+00 4.015089999999999826e+00 4.276510000000000034e+00 2.374299999999999855e+00 3.592919999999999892e+00 8.536770000000000636e+00 8.427009999999999224e+00 3.433050000000000157e+00 8.572739999999999583e+00 9.255900000000000238e-01 3.978070000000000217e+00 2.042580000000000062e+00 6.639199999999999768e+00 3.584979999999999833e+00 1.977500000000000036e+00 5.385659999999999670e+00 4.152289999999999814e+00 1.056579999999999941e+01 1.116210000000000058e+01 4.194420000000000037e+00 1.070040000000000013e+01 3.186179999999999790e+00 1.842499999999999971e-01 9.882000000000000506e-02 8.610599999999999810e+00 7.604300000000000281e+00 4.603000000000000147e-02 1.850000000000000082e-03 1.309500000000000108e-01 6.358839999999999826e+00 5.518930000000000113e+00 4.121099999999999763e-01 6.357109999999999594e+00 3.327059999999999906e+00 3.584709999999999841e+00 1.266709999999999958e+01 9.085160000000000124e+00 3.496750000000000025e+00 2.012999999999999859e-02 3.693100000000000271e-01 4.353509999999999991e+00 6.515049999999999564e+00 6.004979999999999762e+00 4.015530000000000044e+00 6.445039999999999658e+00 8.582100000000000284e-01 1.978869999999999907e+00 1.167759999999999998e+01 6.919270000000000032e+00 1.928600000000000092e+00 1.153190000000000026e+01 5.017649999999999721e+00 5.838669999999999582e+00 1.043360000000000065e+00 1.100960000000000072e+01 5.788929999999999687e+00 1.192129999999999912e+00 3.786259999999999959e+00 5.965279999999999916e+00 7.642260000000000275e+00 9.898179999999999978e+00 5.688500000000000334e+00 7.507279999999999731e+00 2.143979999999999997e+00 2.102990000000000137e+00 5.218810000000000393e+00 7.971379999999999910e+00 1.950709999999999944e+00 5.213569999999999816e+00 4.838790000000000369e+00 2.033450000000000202e+00 1.136340000000000039e+01 1.071230000000000082e+01 1.943330000000000002e+00 1.140000000000000036e+01 1.086780000000000079e+00 6.086680000000000312e+00 1.213389999999999969e+00 7.067549999999999777e+00 5.834050000000000402e+00 1.045970000000000066e+00 1.767460000000000031e+00 5.850229999999999819e+00 7.848110000000000142e+00 7.861519999999999619e+00 5.644580000000000375e+00 7.648329999999999629e+00 4.146919999999999717e+00 1.962050000000000072e+00 5.009039999999999715e+00 1.001420000000000066e+01 1.877040000000000042e+00 5.092279999999999696e+00 1.599439999999999973e+00 1.980259999999999909e+00 7.974200000000000177e-01 7.551569999999999894e+00 1.807989999999999986e+00 6.944599999999999662e-01 4.125239999999999796e+00 5.818999999999999950e+00 1.202989999999999959e+01 1.020100000000000051e+01 5.853580000000000005e+00 1.205860000000000021e+01 4.620390000000000441e+00 6.062770000000000437e+00 5.708039999999999559e+00 1.060880000000000045e+01 5.702989999999999782e+00 5.581290000000000084e+00 1.447950000000000070e+00 2.020360000000000156e+00 7.113080000000000069e+00 7.173009999999999664e+00 2.030710000000000015e+00 7.129809999999999981e+00 1.621820000000000039e+00 2.531200000000000117e-01 1.090119999999999933e+01 7.529320000000000235e+00 1.608100000000000085e-01 1.066130000000000067e+01 4.346770000000000245e+00 7.487910000000000288e+00 2.052789999999999893e+00 1.017389999999999972e+01 7.477780000000000094e+00 2.083540000000000170e+00 4.504749999999999588e+00 7.659370000000000012e+00 8.491920000000000357e+00 1.055160000000000053e+01 7.436469999999999914e+00 8.348000000000000753e+00 1.288529999999999953e+00 5.062999999999999723e-01 4.339900000000000091e+00 7.233360000000000234e+00 2.328099999999999892e-01 4.438329999999999664e+00 4.390390000000000015e+00 4.101530000000000342e+00 1.909550000000000081e+00 1.045710000000000051e+01 4.019260000000000055e+00 2.002829999999999888e+00 1.632349999999999968e+00 3.661379999999999857e+00 1.088809999999999967e+01 7.657639999999999780e+00 3.683499999999999996e+00 1.075350000000000072e+01 1.445440000000000058e+00 3.864619999999999944e+00 4.448550000000000004e+00 7.333859999999999602e+00 3.702820000000000000e+00 4.306329999999999991e+00 4.634450000000000180e+00 4.265920000000000378e+00 8.413159999999999528e+00 1.066290000000000049e+01 4.019110000000000404e+00 8.341989999999999128e+00
1.926509999999999945e+00 8.869999999999999413e-03 8.546049999999999258e+00 8.270849999999999369e+00 1.486800000000000066e-01 8.313029999999999475e+00 3.581659999999999844e+00 7.502970000000000361e+00 4.073100000000000165e+00 9.425639999999999574e+00 7.540960000000000107e+00 4.140760000000000218e+00 5.368240000000000123e+00 7.371769999999999712e+00 1.048019999999999996e+01 1.087439999999999962e+01 3.032999999999999932e-02 1.070100000000000051e+01 6.311799999999999633e-01 2.241400000000000059e-01 2.350420000000000176e+00 6.514969999999999928e+00 3.030399999999999761e-01 2.232889999999999819e+00 3.900269999999999904e+00 4.004290000000000127e+00 4.207830000000000403e+00 9.638640000000000541e+00 4.095959999999999823e+00 4.341269999999999740e+00 2.443259999999999987e+00 3.395890000000000075e+00 8.664799999999999613e+00 8.293879999999999697e+00 3.544540000000000024e+00 8.499169999999999447e+00 7.261999999999999567e-01 3.704000000000000181e+00 2.183030000000000026e+00 6.893559999999999910e+00 3.733779999999999877e+00 2.043620000000000214e+00 5.175370000000000026e+00 4.055390000000000050e+00 1.060999999999999943e+01 1.143410000000000082e+01 4.312109999999999665e+00 1.048499999999999943e+01 2.443420000000000147e+00 7.406480000000000175e+00 1.275949999999999918e+01 8.566549999999999443e+00 7.472179999999999822e+00 1.275564999999999927e+01 1.163669999999999938e+01 4.053399999999999781e-01 6.390799999999999592e+00 5.522260000000000169e+00 2.943700000000000205e-01 6.293980000000000352e+00 3.305149999999999810e+00 3.536560000000000148e+00 1.259099999999999930e+01 9.173180000000000334e+00 3.561910000000000132e+00 1.261359999999999992e+01 2.959600000000000009e-01 4.378969999999999807e+00 6.422349999999999781e+00 6.331610000000000404e+00 4.378260000000000041e+00 6.481090000000000018e+00 8.656500000000000306e-01 2.091289999999999871e+00 1.166210000000000058e+01 6.822930000000000383e+00 2.025790000000000202e+00 1.162700000000000067e+01 5.033669999999999867e+00 5.918050000000000033e+00 1.134030000000000094e+00 1.099060000000000059e+01 5.888690000000000424e+00 1.092929999999999957e+00 3.860710000000000086e+00 5.800209999999999866e+00 7.500029999999999752e+00 9.908220000000000027e+00 5.725539999999999630e+00 7.470799999999999663e+00 2.145259999999999945e+00 1.950090000000000101e+00 5.336750000000000327e+00 7.990689999999999849e+00 1.846840000000000037e+00 5.326340000000000074e+00 4.827580000000000204e+00 1.890749999999999931e+00 1.143560000000000088e+01 1.075510000000000055e+01 2.201540000000000052e+00 1.144139999999999979e+01 1.114910000000000068e+00 5.892149999999999999e+00 1.307150000000000034e+00 7.097839999999999705e+00 5.986690000000000289e+00 1.229940000000000033e+00 1.886509999999999909e+00 5.627220000000000333e+00 7.708160000000000345e+00 7.852210000000000356e+00 5.801599999999999646e+00 7.653870000000000395e+00 4.181400000000000006e+00 1.897820000000000062e+00 5.146040000000000170e+00 1.002660000000000018e+01 1.906509999999999927e+00 5.195170000000000066e+00 1.588310000000000111e+00 1.876509999999999900e+00 8.776699999999999502e-01 7.669220000000000148e+00 1.894209999999999949e+00 8.191300000000000248e-01 4.299459999999999837e+00 5.800440000000000040e+00 1.189809999999999945e+01 1.026290000000000013e+01 5.907689999999999664e+00 1.191840000000000011e+01 4.520550000000000068e+00 5.947049999999999947e+00 5.522809999999999775e+00 1.064659999999999940e+01 5.997300000000000075e+00 5.514450000000000074e+00 1.334489999999999954e+00 2.037310000000000176e+00 7.255799999999999805e+00 7.211899999999999977e+00 1.942090000000000094e+00 7.293720000000000425e+00 1.465940000000000021e+00 3.588199999999999723e-01 1.072320000000000029e+01 7.593420000000000059e+00 3.847099999999999964e-01 1.072519999999999918e+01 4.219050000000000189e+00 7.624390000000000001e+00 1.816189999999999971e+00 1.021739999999999959e+01 7.605789999999999829e+00 1.860130000000000061e+00 4.408150000000000013e+00 7.598460000000000214e+00 8.303789999999999338e+00 1.056220000000000070e+01 7.438860000000000028e+00 8.397949999999999804e+00 1.366859999999999964e+00 2.455400000000000083e-01 4.575009999999999799e+00 7.132719999999999949e+00 1.557900000000000118e-01 4.522960000000000313e+00 4.535079999999999778e+00 4.125379999999999825e+00 1.922760000000000025e+00 1.023119999999999941e+01 4.198120000000000296e+00 1.973880000000000079e+00 1.758979999999999988e+00 3.798830000000000151e+00 1.087260000000000026e+01 7.553079999999999572e+00 3.725179999999999936e+00 1.087170000000000059e+01 1.486720000000000041e+00 3.644379999999999953e+00 4.443719999999999892e+00 7.312969999999999970e+00 3.504620000000000068e+00 4.393889999999999851e+00 4.761129999999999640e+00 4.113710000000000200e+00 8.250769999999999271e+00 1.056540000000000035e+01 4.019720000000000404e+00 8.276730000000000587e+00
2.104699999999999793e+00 7.803860000000000241e+00 8.438599999999999213e+00 8.333700000000000330e+00 4.251400000000000179e-01 8.520429999999999282e+00 3.906400000000000095e+00 7.613129999999999953e+00 4.192770000000000330e+00 9.660759999999999792e+00 7.408760000000000012e+00 3.851370000000000182e+00 5.353060000000000151e+00 7.577239999999999753e+00 1.048019999999999996e+01 1.085360000000000014e+01 7.697210000000000107e+00 1.084399999999999942e+01 8.553399999999999892e-01 9.085000000000000020e-02 2.297050000000000036e+00 6.446340000000000181e+00 5.164999999999999591e-01 2.303840000000000110e+00 3.595089999999999897e+00 3.975779999999999870e+00 4.328899999999999970e+00 9.790350000000000108e+00 4.032729999999999926e+00 4.348589999999999733e+00 2.439779999999999838e+00 3.427350000000000119e+00 8.569100000000000605e+00 8.195140000000000313e+00 3.757179999999999964e+00 8.599849999999999994e+00 4.469000000000000195e-01 3.404949999999999921e+00 2.032290000000000152e+00 6.885539999999999772e+00 3.912830000000000030e+00 2.001770000000000049e+00 5.060660000000000380e+00 4.022330000000000183e+00 1.063850000000000051e+01 1.144299999999999962e+01 4.341820000000000235e+00 1.045090000000000074e+01 2.527750000000000163e+00 7.463110000000000355e+00 2.302999999999999839e-02 8.655129999999999768e+00 7.714920000000000222e+00 1.714799999999999935e-01 1.159639999999999915e+01 3.314099999999999824e-01 6.276329999999999742e+00 6.095970000000000333e+00 7.646650000000000169e+00 6.485549999999999926e+00 3.386610000000000120e+00 3.751430000000000042e+00 1.274136000000000024e+01 9.110450000000000159e+00 3.871449999999999836e+00 3.962999999999999856e-02 2.129699999999999926e-01 3.951459999999999972e+00 6.274810000000000443e+00 6.330140000000000100e+00 4.131890000000000285e+00 6.392269999999999897e+00 9.483099999999999863e-01 2.022450000000000081e+00 1.163719999999999999e+01 6.827810000000000379e+00 2.018569999999999975e+00 1.172259999999999991e+01 5.128370000000000317e+00 5.956430000000000113e+00 1.060899999999999954e+00 1.097550000000000026e+01 5.994430000000000369e+00 1.135520000000000085e+00 3.896879999999999900e+00 5.683629999999999960e+00 7.414489999999999803e+00 9.779949999999999477e+00 5.950929999999999609e+00 7.416439999999999699e+00 2.022889999999999855e+00 1.731060000000000043e+00 5.261730000000000018e+00 8.041919999999999291e+00 1.904979999999999896e+00 5.252559999999999896e+00 4.823050000000000281e+00 1.927789999999999893e+00 1.165210000000000079e+01 1.079780000000000051e+01 2.187489999999999934e+00 1.157479999999999976e+01 1.133380000000000054e+00 5.737079999999999735e+00 1.376759999999999984e+00 7.126990000000000158e+00 6.166629999999999612e+00 1.372130000000000072e+00 1.828219999999999956e+00 5.688769999999999882e+00 7.488279999999999603e+00 7.759920000000000151e+00 6.081299999999999706e+00 7.632749999999999702e+00 4.037989999999999746e+00 1.888400000000000079e+00 5.314000000000000057e+00 1.005419999999999980e+01 1.896020000000000039e+00 5.147630000000000372e+00 1.739870000000000028e+00 1.884290000000000020e+00 7.767500000000000515e-01 7.676960000000000228e+00 2.072090000000000209e+00 8.688399999999999457e-01 4.427649999999999864e+00 5.835300000000000153e+00 1.189559999999999995e+01 1.023279999999999923e+01 5.833569999999999922e+00 1.198049999999999926e+01 4.701190000000000424e+00 5.735660000000000203e+00 5.553619999999999557e+00 1.051720000000000077e+01 5.899180000000000312e+00 5.513460000000000250e+00 1.205340000000000078e+00 1.895769999999999955e+00 7.174710000000000143e+00 7.263530000000000264e+00 2.012140000000000040e+00 7.134159999999999613e+00 1.448819999999999997e+00 2.801199999999999801e-01 1.072659999999999947e+01 7.600859999999999950e+00 3.173099999999999810e-01 1.077309999999999945e+01 4.121579999999999799e+00 7.611970000000000347e+00 1.847969999999999891e+00 1.042290000000000028e+01 7.808469999999999800e+00 1.816599999999999993e+00 4.483710000000000306e+00 7.410739999999999661e+00 8.350260000000000460e+00 1.060800000000000054e+01 7.583050000000000068e+00 8.380150000000000432e+00 1.374579999999999913e+00 7.712819999999999787e+00 4.501500000000000057e+00 7.366010000000000169e+00 1.368000000000000049e-01 4.412600000000000300e+00 4.456710000000000171e+00 4.232129999999999725e+00 2.067699999999999871e+00 1.004630000000000045e+01 4.399560000000000137e+00 2.118339999999999890e+00 1.777109999999999967e+00 3.757559999999999789e+00 1.082099999999999973e+01 7.451450000000000351e+00 3.819490000000000052e+00 1.089610000000000056e+01 1.289349999999999996e+00 3.360409999999999897e+00 4.211170000000000080e+00 7.342530000000000001e+00 3.640730000000000022e+00 4.382679999999999687e+00 4.664489999999999803e+00 3.990289999999999893e+00 8.290580000000000283e+00 1.046410000000000018e+01 4.140930000000000000e+00 8.248670000000000613e+00