-2.904005727499999807e+02
-2.915594632500000216e+02
-2.922032315199999744e+02
-2.924047413900000265e+02
-2.925851992600000244e+02
-2.924061909000000128e+02
-2.920098197300000038e+02
-2.917750494599999911e+02
-2.918171325000000138e+02
-2.919868966600000135e+02
-2.921226558600000089e+02
-2.922746080599999914e+02
-2.918961321799999951e+02
-2.918741178099999729e+02
-2.915981321699999853e+02
-2.916381585199999904e+02
-2.915866714399999751e+02
-2.917934137899999882e+02
-2.918656047499999886e+02
-2.915971844000000033e+02
-2.911795153799999980e+02
-2.914842449899999792e+02
-2.914889131699999893e+02
-2.918603871799999752e+02
-2.915203040100000180e+02
-2.912455651999999873e+02
-2.911218107400000008e+02
-2.914688620800000081e+02
-2.911925242099999878e+02
-2.909096562199999880e+02
-2.913087544300000218e+02
-2.917067925900000205e+02
-2.908368370499999855e+02
-2.912572170000000256e+02
-2.905885642700000062e+02
-2.909840016100000071e+02
-2.908611560499999769e+02
-2.906179773999999725e+02
-2.906423712700000124e+02
-2.907182108399999834e+02
-2.904383501199999955e+02
-2.907030318299999863e+02
-2.906182044500000075e+02
-2.906579860900000085e+02
-2.904282945900000072e+02
-2.900618545300000051e+02
-2.904659329300000081e+02
-2.901054465799999775e+02
-2.905604223899999852e+02
-2.904982316200000128e+02
-2.898991909100000157e+02
-2.900835669699999926e+02
-2.895414074099999766e+02
-2.897759466200000134e+02
-2.898198665699999879e+02
-2.902545194300000162e+02
-2.903764020799999912e+02
-2.898792795699999942e+02
-2.891895456999999965e+02
-2.895457963299999733e+02
-2.901287789099999941e+02
-2.901517133400000148e+02
-2.903889896800000088e+02
-2.898284630399999742e+02
-2.896874537699999905e+02
-2.896791335300000014e+02
-2.893892990599999848e+02
-2.888349974000000202e+02
-2.889085461099999748e+02
-2.884357414099999914e+02
-2.879159435400000007e+02
-2.886052167700000268e+02
-2.888598497799999905e+02
-2.884144464899999889e+02
-2.883099896300000182e+02
-2.879275129399999855e+02
-2.888117531999999983e+02
-2.890487787999999796e+02
-2.889904350499999737e+02
-2.877961309199999960e+02
-2.885660306300000002e+02
-2.886362801199999808e+02
-2.888155042899999785e+02
-2.883257431700000097e+02
-2.882989077700000280e+02
-2.882579272199999991e+02
-2.886287080700000161e+02
-2.884880124599999931e+02
-2.882098950999999829e+02
-2.884013619300000073e+02
-2.880240872699999954e+02
-2.877093599300000051e+02
-2.879933922899999743e+02
-2.880476634600000239e+02
-2.882215745299999980e+02
-2.884451778299999773e+02
-2.880319674200000009e+02
-2.878936364200000071e+02
-2.880319575699999746e+02
-2.878368296900000018e+02
-2.876381455800000140e+02
-2.875283213800000226e+02
-2.881560779999999795e+02
-2.864575579799999900e+02
-2.866699480500000163e+02
-2.869651347299999884e+02
-2.872789566299999819e+02
-2.876860387500000229e+02
-2.860095842200000220e+02
-2.870420207999999889e+02
-2.866588053899999977e+02
-2.861248398299999849e+02
-2.874437898099999984e+02
-2.861160952000000179e+02
-2.861110661399999913e+02
-2.864031408199999760e+02
-2.862449065399999881e+02
-2.867992651199999727e+02
-2.874227601000000050e+02
-2.857593154799999979e+02
-2.857759754200000089e+02
-2.864273229899999933e+02
-2.861325813600000174e+02
-2.858467084900000259e+02
-2.849369100900000262e+02
-2.851608436800000277e+02
-2.857205845899999872e+02
-2.864767971300000227e+02
-2.861322480900000187e+02
-2.867530343099999754e+02
-2.869823703600000044e+02
-2.856103215599999885e+02
-2.854214420999999788e+02
-2.849485057699999970e+02
-2.857670853399999942e+02
-2.852438287800000012e+02
-2.847713165700000104e+02
-2.838226079699999786e+02
-2.846866170499999953e+02
-2.848705958200000055e+02
-2.849181301799999915e+02
-2.846661044300000185e+02
-2.842502920399999766e+02
-2.842432788599999753e+02
-2.858320767399999909e+02
-2.845356316500000275e+02
-2.852216425500000128e+02
-2.857745110299999851e+02
-2.838663554600000225e+02
-2.860780981500000166e+02
-2.870263212400000157e+02
-2.864181707999999844e+02
-2.844635090099999957e+02
-2.849809712900000136e+02
-2.850789232800000264e+02
-2.847722464099999797e+02
-2.860049932699999999e+02
-2.853670394900000247e+02
-2.836601090500000169e+02
-2.836910038400000076e+02
-2.837285591899999986e+02
-2.831757092899999861e+02
-2.847273359499999970e+02
-2.835435341599999788e+02
-2.838062202200000002e+02
-2.835811139900000057e+02
-2.834222739100000013e+02
-2.849290246099999990e+02
-2.846988753499999802e+02
-2.840471038499999850e+02
-2.849556656299999986e+02
-2.821253964499999825e+02
-2.842041498300000057e+02
-2.825065296800000283e+02
-2.833710644999999886e+02
-2.828119330900000250e+02
-2.828461410900000033e+02
-2.856677736500000151e+02
-2.847189140199999997e+02
-2.834412246100000061e+02
-2.832605283500000155e+02
-2.831495589099999961e+02
-2.839983551299999931e+02
-2.827302767699999890e+02
-2.834010030300000267e+02
-2.839466586500000176e+02
-2.822523415200000159e+02
-2.819458251899999937e+02
-2.817695454999999924e+02
-2.829302663799999777e+02
-2.828673574700000017e+02
-2.824667076200000224e+02
-2.827576484200000095e+02
-2.812849473100000068e+02
-2.818486861100000169e+02
-2.821271691499999861e+02
-2.828430944899999986e+02
-2.817156954199999745e+02
-2.821065302299999757e+02
-2.808865839200000210e+02
