2.763950000000000018e-01 4.680299999999999738e-02 2.915730000000000266e-01 6.872999999999999943e-02 2.970700000000000077e-02 1.126800000000000024e-02 -3.221419999999999839e-01 -2.297199999999999936e-02 1.160970000000000057e-01 4.577019999999999977e-01 3.489199999999999940e-02 1.667899999999999938e-02 2.390700000000000047e-01 -4.943000000000000345e-03 -1.986719999999999875e-01 -4.998099999999999765e-02 -6.771000000000000629e-02 2.963330000000000131e-01 1.511609999999999898e-01 2.200580000000000036e-01 -4.566720000000000224e-01 1.140700000000000047e-02 -1.473500000000000087e-01 -7.287730000000000041e-01 -1.986970000000000125e-01 -1.237830000000000041e-01 -6.047999999999999904e-02 7.974000000000000185e-03 -1.316070000000000018e-01 1.869099999999999928e-02 5.958759999999999613e-01 5.019179999999999753e-01 -7.226899999999999991e-02 -5.828699999999999853e-02 7.524799999999999545e-02 -1.750909999999999966e-01 -2.163980000000000070e-01 3.737260000000000026e-01 -4.323629999999999973e-01 -1.081440000000000040e-01 4.075849999999999751e-01 3.298999999999999849e-03 1.860960000000000114e-01 1.204609999999999986e-01 1.249770000000000048e-01 3.290599999999999775e-02 2.745210000000000150e-01 5.374179999999999513e-01 3.000200000000000089e-01 -3.767299999999999816e-02 -3.789390000000000258e-01 -1.819000000000000087e-03 -1.679450000000000109e-01 9.979999999999999722e-04 -1.447890000000000010e-01 -2.557980000000000254e-01 -4.505069999999999908e-01 -8.815599999999999825e-02 -1.315429999999999933e-01 -1.856549999999999867e-01 3.395329999999999737e-01 7.818200000000000149e-02 1.165849999999999942e-01 -4.463329999999999798e-01 1.728419999999999956e-01 -2.621749999999999914e-01 1.717200000000000115e-01 -2.769590000000000107e-01 -9.907499999999999640e-02 -2.598349999999999826e-01 1.051929999999999948e-01 -1.401840000000000031e-01 -3.977979999999999849e-01 -1.728739999999999999e-01 5.929200000000000026e-01 -1.183531000000000111e+00 -3.649290000000000034e-01 -8.440159999999999885e-01 1.466833999999999971e+00 -9.619900000000000673e-02 1.044508999999999910e+00 -1.294613000000000014e+00 1.437969999999999970e+00 -1.436609000000000025e+00 1.015179000000000054e+00 -3.420190000000000174e-01 8.645260000000000167e-01 -1.663421999999999956e+00 1.236941000000000068e+00 8.948540000000000383e-01 1.118569999999999981e-01 6.044899999999999718e-01 4.880090000000000261e-01 1.457650000000000057e-01 2.837259999999999782e-01 5.698099999999999693e-02 1.793800000000000117e-01 5.737849999999999895e-01 2.259130000000000027e-01 -6.590000000000000024e-02 -4.053500000000000159e-02 4.815470000000000028e-01 6.972960000000000269e-01 -9.781649999999999512e-01 2.703329999999999900e-01 -8.938030000000000141e-01 3.189730000000000065e-01 -4.345100000000000073e-01 -6.334370000000000278e-01 2.971900000000000097e-01 -6.872200000000000530e-02 1.012369000000000074e+00 -6.148789999999999534e-01 -3.328309999999999880e-01 -6.528800000000000159e-01 4.215690000000000270e-01 1.989150000000000085e-01 -6.548490000000000144e-01 -3.101740000000000053e-01 -2.882900000000000046e-02 -5.961870000000000225e-01 1.918159999999999865e-01 -1.130522000000000027e+00 6.953669999999999574e-01 -2.468700000000000061e-02 6.701589999999999492e-01 -4.908529999999999838e-01 -8.261100000000000387e-02 -1.254769000000000023e+00 6.085749999999999771e-01 -2.842210000000000014e-01 5.328270000000000506e-01 7.296099999999999808e-02 2.049000000000000040e-03 1.305590000000000084e-01 1.047470000000000068e-01 -6.879640000000000200e-01 -6.955810000000000048e-01 2.575330000000000119e-01 6.396159999999999624e-01 -1.163804000000000061e+00 2.391600000000000115e-01 -4.563889999999999891e-01 1.828278000000000070e+00 5.426480000000000192e-01 -7.128700000000000314e-02 2.873530000000000251e-01 6.252699999999999925e-01 6.751200000000000256e-02 -2.734110000000000151e-01 -1.807279999999999998e-01 6.102180000000000382e-01 -6.930999999999999661e-03 -7.270739999999999981e-01 1.000670000000000032e-01 -4.059800000000000214e-02 -8.048900000000000499e-02 2.620990000000000264e-01 -7.815199999999999925e-02 -8.989999999999999380e-02 3.046769999999999756e-01 8.910700000000000565e-02 -2.766520000000000090e-01 -1.729420000000000124e-01 3.514530000000000154e-01 -4.498599999999999821e-01 -4.909589999999999788e-01 -8.095399999999999818e-02 -2.227919999999999900e-01 -8.913119999999999932e-01 4.873750000000000027e-01 5.092680000000000540e-01 -1.108503000000000016e+00 8.902109999999999745e-01 2.560839999999999783e-01 1.203209999999999974e-01 2.271420000000000106e-01 -2.474079999999999890e-01 -1.442080000000000028e-01 4.712560000000000082e-01 9.828890000000000127e-01 -1.070206999999999908e+00 5.673669999999999547e-01 3.172610000000000152e-01 3.788670000000000093e-01 -7.962799999999999878e-01 -8.408699999999999508e-02 -2.900119999999999920e-01 -1.846499999999999878e-02 1.018109999999999987e-01 -2.296610000000000040e-01 -8.596730000000000205e-01
-7.715299999999999936e-02 3.420009999999999994e-01 -4.845380000000000242e-01 6.530000000000000214e-03 4.700929999999999831e-01 1.794070000000000109e-01 -3.151920000000000277e-01 -1.134379999999999972e-01 2.012110000000000010e-01 2.680839999999999890e-01 -7.330399999999999416e-02 -2.601499999999999993e-02 1.980079999999999896e-01 9.017100000000000115e-02 5.999139999999999473e-01 -2.975999999999999913e-03 3.839700000000000057e-02 1.049920000000000020e-01 -1.777459999999999873e-01 -4.872100000000000042e-02 1.568970000000000087e-01 5.395300000000000096e-02 3.774700000000000277e-02 -5.799800000000000511e-01 5.300400000000000250e-02 3.067329999999999779e-01 3.164629999999999943e-01 1.455639999999999989e-01 -3.125200000000000200e-02 5.464900000000000313e-02 1.983389999999999875e-01 -3.533680000000000154e-01 1.812159999999999882e-01 1.752390000000000059e-01 7.126599999999999602e-02 -1.932439999999999991e-01 -2.072720000000000118e-01 6.657149999999999457e-01 -5.897600000000000064e-02 -1.048749999999999960e-01 1.471600000000000130e-01 -4.569399999999999851e-02 1.921420000000000072e-01 -2.821370000000000267e-01 2.985760000000000081e-01 2.846000000000000005e-03 -5.734000000000000381e-03 5.561789999999999790e-01 3.895310000000000161e-01 -5.738590000000000080e-01 -4.084070000000000200e-01 -8.925400000000000000e-02 8.460800000000000265e-02 3.987580000000000013e-01 3.425190000000000179e-01 5.122199999999999670e-02 -5.032229999999999759e-01 2.173509999999999887e-01 5.778699999999999809e-02 -1.430530000000000135e-01 -5.511100000000000027e-02 3.417499999999999705e-02 -1.773560000000000136e-01 -3.394860000000000100e-01 7.113000000000000399e-03 -5.516100000000000447e-01 2.545009999999999772e-01 -5.564000000000000196e-02 2.455130000000000090e-01 -1.726360000000000117e-01 1.831369999999999942e-01 -2.827569999999999806e-01 7.497650000000000148e-01 2.258120000000000127e-01 -6.189219999999999722e-01 7.409310000000000063e-01 -1.606579999999999953e-01 -8.590299999999999325e-02 1.596140000000000059e-01 5.638300000000000256e-02 -5.491599999999999954e-02 7.102110000000000367e-01 -7.183499999999999608e-02 7.223950000000000093e-01 -4.486660000000000093e-01 3.282760000000000122e-01 -8.094109999999999916e-01 1.340567000000000064e+00 -1.423649999999999916e-01 -5.356630000000000003e-01 -5.867930000000000090e-01 -5.873199999999999532e-01 9.091999999999999388e-03 -5.574489999999999723e-01 -4.859000000000000125e-02 6.416399999999999881e-02 1.905149999999999899e-01 4.393899999999999889e-02 -2.170749999999999902e-01 4.664800000000000196e-02 2.500089999999999812e-01 -3.188429999999999875e-01 -8.812389999999999946e-01 -6.171790000000000331e-01 3.249079999999999746e-01 -1.539490000000000025e-01 9.865999999999999770e-02 1.988010000000000055e-01 -4.162199999999999928e-02 1.821969999999999978e-01 6.674499999999999877e-02 -2.699360000000000093e-01 -5.335429999999999895e-01 6.167299999999999865e-02 -7.191119999999999735e-01 2.920409999999999950e-01 -2.086020000000000096e-01 -2.496900000000000161e-02 -5.300249999999999684e-01 -3.404019999999999824e-01 -4.346189999999999776e-01 2.357879999999999976e-01 -6.475079999999999725e-01 -5.733719999999999928e-01 -4.102109999999999923e-01 -3.914750000000000174e-01 -3.173449999999999882e-01 -9.222600000000000242e-02 8.416179999999999772e-01 -4.332099999999999840e-02 -1.798980000000000024e-01 -3.003120000000000234e-01 1.205910000000000037e-01 -3.378849999999999909e-01 3.445460000000000189e-01 -3.593359999999999888e-01 3.109930000000000194e-01 5.078529999999999989e-01 3.027210000000000178e-01 -2.768769999999999842e-01 -4.360600000000000032e-01 1.185179999999999984e-01 -1.012519999999999948e-01 -4.779289999999999927e-01 -5.383250000000000535e-01 2.866009999999999946e-01 9.058420000000000361e-01 -4.441990000000000105e-01 4.104200000000000209e-02 5.275099999999999928e-02 6.121000000000000052e-02 -6.498460000000000347e-01 1.294569999999999887e-01 5.040449999999999653e-01 -3.723489999999999855e-01 -1.961330000000000018e-01 -1.028320000000000067e-01 -2.973720000000000252e-01 -8.104899999999999605e-02 -6.473590000000000177e-01 -3.397410000000000152e-01 4.527140000000000053e-01 9.665730000000000155e-01 3.131639999999999979e-01 3.790100000000000136e-01 2.975940000000000252e-01 1.567099999999999882e-01 6.181060000000000443e-01 4.912639999999999785e-01 6.591759999999999842e-01 -7.310330000000000439e-01 3.688649999999999984e-01 9.043809999999999905e-01 -6.719100000000000072e-02 -2.111959999999999948e-01 -7.022100000000000009e-01 5.808170000000000277e-01 -1.643060000000000076e-01 3.261479999999999935e-01 3.647659999999999791e-01 1.608269999999999977e-01 4.756299999999999972e-01 2.350039999999999907e-01 -2.431899999999999895e-01 1.752380000000000049e-01 4.193800000000000305e-02 -2.180469999999999908e-01 -1.500160000000000105e-01 3.094939999999999913e-01 -3.051840000000000108e-01 1.893420000000000103e-01 -5.321930000000000271e-01
2.134199999999999986e-01 -3.130049999999999777e-01 7.089399999999999868e-02 2.531100000000000017e-02 3.325469999999999815e-01 4.370189999999999908e-01 2.838999999999999857e-02 -1.329700000000000049e-01 -9.488800000000000012e-02 -7.532300000000000106e-02 1.016910000000000036e-01 -2.687649999999999761e-01 -1.617069999999999896e-01 1.669339999999999991e-01 -1.022969999999999990e-01 4.735299999999999926e-02 -1.384219999999999895e-01 -5.023899999999999894e-02 1.291999999999999963e-03 1.033489999999999964e-01 5.910699999999999982e-02 1.706070000000000086e-01 3.555209999999999759e-01 2.133740000000000081e-01 1.451099999999999959e-02 2.189979999999999982e-01 1.791540000000000077e-01 2.775199999999999889e-02 -8.053899999999999948e-02 -7.691399999999999626e-02 -1.272480000000000000e-01 -2.039739999999999887e-01 1.828639999999999988e-01 1.104239999999999944e-01 8.421800000000000119e-02 -4.560620000000000229e-01 2.129040000000000099e-01 3.000900000000000095e-02 1.106469999999999954e-01 9.672000000000000042e-02 -5.163999999999999840e-02 -7.383099999999999385e-02 1.067250000000000004e-01 -1.688580000000000081e-01 1.684740000000000126e-01 7.188999999999999557e-02 -9.405600000000000072e-02 -1.045890000000000014e-01 2.084239999999999982e-01 -3.029620000000000091e-01 -2.605819999999999803e-01 -2.518130000000000090e-01 2.370710000000000039e-01 -3.016170000000000240e-01 -2.619110000000000049e-01 -1.557920000000000138e-01 -5.855199999999999988e-02 -1.000000000000000056e-01 5.541999999999999704e-02 1.576180000000000081e-01 -3.131059999999999954e-01 -3.240700000000000247e-01 -2.817339999999999844e-01 -8.523400000000000420e-02 1.126989999999999936e-01 -1.735119999999999996e-01 -2.346179999999999932e-01 -1.357119999999999993e-01 6.397270000000000456e-01 -1.690099999999999936e-01 2.229750000000000065e-01 6.016999999999999779e-03 -2.679810000000000247e-01 1.874490000000000045e-01 1.051099000000000006e+00 6.958419999999999606e-01 3.733469999999999844e-01 7.464899999999999869e-01 -8.750710000000000433e-01 3.640979999999999772e-01 -8.359600000000000364e-02 3.228139999999999898e-01 -5.318359999999999754e-01 -3.444720000000000004e-01 -6.979940000000000033e-01 -2.899699999999999847e-02 6.945649999999999880e-01 7.445979999999999821e-01 -1.338184999999999958e+00 1.529540000000000066e-01 -1.448790000000000078e-01 -8.955899999999999972e-02 4.834990000000000121e-01 3.380290000000000239e-01 9.133600000000000052e-02 2.344670000000000087e-01 8.296800000000000008e-02 -2.433450000000000057e-01 -2.042490000000000139e-01 2.817009999999999792e-01 3.581710000000000171e-01 -2.386850000000000083e-01 -3.804679999999999729e-01 -4.588099999999999956e-01 1.482169999999999876e-01 7.110630000000000006e-01 -4.111049999999999982e-01 6.630500000000000282e-02 7.416700000000000514e-01 -2.857469999999999732e-01 1.457120000000000082e-01 -6.377829999999999888e-01 -2.719210000000000238e-01 -5.748000000000000331e-02 3.637469999999999870e-01 -1.616789999999999894e-01 -5.910399999999999682e-02 3.550650000000000195e-01 2.736200000000000090e-02 6.461500000000000576e-02 -5.198310000000000430e-01 -7.242000000000000173e-03 1.676120000000000110e-01 -3.659729999999999928e-01 -4.358219999999999872e-01 -7.180119999999999836e-01 1.576460000000000083e-01 3.193000000000000005e-02 4.901960000000000206e-01 2.218950000000000089e-01 -2.773079999999999989e-01 6.114720000000000155e-01 1.131019999999999942e-01 -1.383489999999999998e-01 -1.147804999999999964e+00 -8.221100000000000629e-02 6.231550000000000145e-01 -2.235060000000000102e-01 5.990299999999999792e-02 4.114119999999999999e-01 2.847319999999999851e-01 -8.636699999999999933e-02 5.983600000000000030e-02 -5.858780000000000099e-01 1.878009999999999957e-01 -4.845530000000000115e-01 -3.747190000000000243e-01 -2.694010000000000016e-01 2.721509999999999763e-01 -1.614269999999999872e-01 -2.645190000000000041e-01 -3.049549999999999761e-01 -3.822400000000000103e-02 1.466520000000000046e-01 1.895199999999999940e-01 7.328639999999999599e-01 -1.518660000000000010e-01 5.499100000000000099e-01 3.806039999999999979e-01 2.374300000000000022e-02 4.389979999999999993e-01 -2.177260000000000029e-01 1.042949999999999988e-01 3.093679999999999763e-01 -1.361650000000000083e-01 -9.471000000000000252e-03 8.396499999999999797e-02 1.643199999999999869e-02 2.574159999999999782e-01 4.358710000000000084e-01 -3.017650000000000055e-01 -1.015889999999999987e-01 5.951849999999999641e-01 -2.487860000000000071e-01 1.735510000000000108e-01 7.774090000000000167e-01 -7.456540000000000390e-01 -2.155769999999999909e-01 -1.363030000000000075e-01 4.288210000000000077e-01 2.858180000000000165e-01 -2.622680000000000011e-01 -9.988209999999999589e-01 -4.680739999999999901e-01 2.704499999999999960e-02 1.003639999999999949e-01 -3.599149999999999849e-01 -2.390100000000000002e-01 -3.998950000000000005e-01 -2.610200000000000020e-02 -1.995699999999999905e-02 3.636369999999999880e-01
1.926740000000000119e-01 -1.468929999999999958e-01 -6.680500000000000327e-02 1.975969999999999949e-01 -2.132429999999999881e-01 3.757289999999999797e-01 3.774850000000000150e-01 4.564200000000000201e-02 -2.337829999999999908e-01 -1.409799999999999942e-02 4.271599999999999703e-02 -3.171800000000000175e-01 -1.148699999999999999e-01 2.311670000000000114e-01 -2.622269999999999879e-01 1.013330000000000064e-01 -2.459929999999999894e-01 5.444100000000000328e-02 -2.006499999999999950e-01 6.786100000000000465e-02 -1.611999999999999935e-03 -1.312860000000000138e-01 -1.747750000000000137e-01 4.988270000000000204e-01 -1.980939999999999923e-01 -2.347920000000000007e-01 -1.891750000000000098e-01 2.278669999999999862e-01 1.715969999999999995e-01 -1.891639999999999988e-01 -1.208000000000000046e-02 7.214600000000000180e-02 3.611559999999999770e-01 -9.206799999999999706e-02 6.238199999999999995e-02 -1.626460000000000128e-01 2.520549999999999735e-01 -5.213839999999999586e-01 2.673820000000000086e-01 2.127000000000000002e-01 9.590999999999999526e-02 1.831949999999999967e-01 -1.260630000000000084e-01 3.586309999999999776e-01 2.377329999999999999e-01 1.178499999999999964e-01 2.547500000000000112e-02 -1.738919999999999910e-01 -3.115160000000000151e-01 1.504860000000000086e-01 -2.735099999999999754e-01 3.887809999999999877e-01 -3.123029999999999973e-01 -1.179400000000000066e-02 -1.839790000000000036e-01 -6.854499999999999482e-02 6.584999999999999708e-03 3.087799999999999920e-02 -3.425700000000000273e-02 -9.280900000000000261e-02 -2.096290000000000098e-01 -1.251470000000000082e-01 -1.224100000000000049e-01 3.962530000000000219e-01 3.188230000000000230e-01 -7.486299999999999899e-02 1.565509999999999957e-01 -3.766010000000000191e-01 -4.096099999999999741e-02 1.305469999999999964e-01 2.075579999999999925e-01 -1.315560000000000063e-01 -2.938830000000000053e-01 -4.115179999999999949e-01 -6.111020000000000341e-01 -8.921599999999999531e-01 -1.172959999999999975e-01 -8.675079999999999458e-01 6.272140000000000493e-01 -1.134259999999999990e-01 1.297039999999999971e+00 -7.228639999999999510e-01 1.207554000000000016e+00 1.020829999999999932e-01 6.596809999999999619e-01 -1.895920000000000105e-01 -3.831930000000000058e-01 -6.078310000000000102e-01 3.045300000000000229e-01 1.813559999999999894e-01 7.161999999999999963e-03 4.967809999999999726e-01 -5.203969999999999985e-01 3.532379999999999964e-01 2.596649999999999792e-01 -3.935890000000000222e-01 4.101799999999999891e-01 -5.392219999999999791e-01 8.427199999999999969e-02 2.731259999999999799e-01 2.076310000000000100e-01 3.070439999999999836e-01 6.482799999999999674e-01 -2.392489999999999895e-01 -3.132399999999999768e-02 -1.996169999999999889e-01 -1.558769999999999878e-01 4.816000000000000142e-02 1.280340000000000089e-01 3.191320000000000268e-01 -6.994400000000000617e-02 8.383500000000000674e-02 5.483400000000000080e-02 -2.935999999999999808e-03 2.641819999999999724e-01 1.839800000000000046e-01 -1.235770000000000063e-01 -2.331370000000000109e-01 -6.702400000000000024e-02 2.679840000000000000e-01 1.991580000000000017e-01 2.084479999999999944e-01 9.545820000000000416e-01 2.786460000000000048e-01 3.784950000000000259e-01 5.812619999999999454e-01 -2.921199999999999908e-01 8.867899999999999394e-02 -1.417586999999999930e+00 -1.983890000000000098e-01 -2.400619999999999976e-01 -2.617940000000000267e-01 -2.456109999999999960e-01 -3.112420000000000186e-01 3.156979999999999786e-01 1.017939999999999956e-01 4.595620000000000260e-01 -1.699180000000000135e-01 -4.728709999999999858e-01 7.488200000000000411e-02 7.261589999999999989e-01 8.560900000000000454e-02 -9.101199999999999568e-02 8.845100000000000184e-02 -2.128990000000000049e-01 -9.914800000000000002e-02 -2.813600000000000129e-02 1.625240000000000018e-01 5.671190000000000397e-01 -7.884599999999999942e-02 1.327369999999999939e-01 8.974600000000000632e-02 1.303989999999999871e-01 -1.277629999999999877e-01 -3.625280000000000169e-01 -6.826699999999999435e-02 -2.287289999999999879e-01 1.740289999999999893e-01 1.524540000000000062e-01 -1.100690000000000002e-01 1.923120000000000107e-01 -1.280810000000000004e-01 -6.224779999999999758e-01 -5.779710000000000125e-01 -1.627470000000000028e-01 -3.370859999999999967e-01 -8.837899999999999923e-02 -5.169200000000000184e-02 -1.566520000000000135e-01 -1.257250000000000034e-01 5.167389999999999484e-01 -1.077089999999999992e-01 -2.141720000000000013e-01 1.077600000000000086e-02 1.957199999999999912e-02 4.617350000000000065e-01 -4.928719999999999768e-01 3.979400000000000298e-02 -4.645960000000000090e-01 3.369280000000000053e-01 4.675560000000000271e-01 -5.299100000000000338e-02 -5.703899999999999942e-02 -2.133770000000000111e-01 -3.543819999999999748e-01 2.457320000000000060e-01 -2.095160000000000078e-01 -6.332599999999999341e-02 -2.748950000000000005e-01 3.541980000000000128e-01 -2.468410000000000049e-01 2.076659999999999895e-01
1.780239999999999878e-01 2.124659999999999882e-01 -4.489150000000000085e-01 -1.068769999999999998e-01 2.275669999999999915e-01 3.439760000000000040e-01 2.080100000000000005e-02 1.646090000000000053e-01 1.112920000000000020e-01 1.337059999999999915e-01 -4.338299999999999795e-02 -7.028099999999999625e-02 -6.214800000000000185e-02 1.850400000000000100e-01 8.366600000000000426e-02 1.495080000000000020e-01 -2.576240000000000197e-01 3.579999999999999741e-04 -1.253029999999999977e-01 6.490600000000000536e-02 -1.605659999999999865e-01 1.245340000000000058e-01 1.380460000000000020e-01 -1.001670000000000060e-01 -4.205799999999999816e-02 2.484369999999999912e-01 4.436199999999999866e-02 8.954600000000000060e-02 1.701129999999999864e-01 -1.041320000000000023e-01 3.497009999999999841e-01 2.866349999999999731e-01 3.370499999999999885e-02 -1.044209999999999999e-01 1.837469999999999937e-01 4.155380000000000185e-01 -4.887799999999999784e-02 -1.310000000000000053e-01 -2.928199999999999900e-02 4.572899999999999882e-02 7.341699999999999615e-02 1.636200000000000154e-02 1.653640000000000110e-01 1.579339999999999911e-01 -2.092680000000000096e-01 -2.511789999999999856e-01 2.759619999999999851e-01 4.040400000000000241e-02 2.489760000000000029e-01 5.647300000000000236e-02 -8.664600000000000080e-02 -1.980200000000000016e-02 1.184240000000000015e-01 1.274339999999999917e-01 -1.545040000000000024e-01 -9.273399999999999699e-02 -6.499000000000000610e-02 7.493900000000000561e-02 -4.901900000000000007e-02 1.316720000000000113e-01 2.131510000000000071e-01 3.101200000000000137e-02 4.652800000000000269e-01 1.411010000000000042e-01 2.907589999999999897e-01 2.588849999999999763e-01 2.312099999999999989e-01 -3.839910000000000267e-01 -1.266970000000000041e-01 -1.443599999999999918e-02 -1.820060000000000011e-01 -3.490759999999999974e-01 6.153610000000000468e-01 -2.690040000000000209e-01 2.060430000000000039e-01 4.621140000000000247e-01 -5.425119999999999942e-01 8.006630000000000136e-01 7.307179999999999787e-01 -3.689200000000000257e-01 -1.355418000000000012e+00 -4.247500000000000164e-01 4.104100000000000109e-02 7.115699999999999803e-02 6.389340000000000019e-01 1.208680000000000032e-01 -4.022209999999999952e-01 -6.828699999999999770e-01 1.136325000000000029e+00 -3.640030000000000210e-01 1.428919999999999912e-01 5.691199999999999731e-02 2.932219999999999827e-01 -3.624870000000000037e-01 -7.078299999999999870e-02 5.261890000000000178e-01 -4.317239999999999966e-01 -1.344670000000000032e-01 9.786599999999999466e-02 -4.539599999999999885e-02 1.202209999999999945e-01 -3.502299999999999858e-02 3.032299999999999926e-02 -1.727750000000000119e-01 9.480399999999999938e-02 -4.974210000000000020e-01 -2.369999999999999885e-02 2.283999999999999919e-01 -7.896509999999999918e-01 5.587299999999999905e-02 2.906270000000000242e-01 3.024169999999999914e-01 -2.898499999999999965e-01 -8.965099999999999458e-02 -3.613689999999999958e-01 -2.248599999999999904e-02 -4.776199999999999890e-02 -1.553930000000000033e-01 -2.959510000000000196e-01 -8.976199999999999457e-02 -9.904599999999999516e-02 3.720910000000000051e-01 -8.159750000000000059e-01 -4.887230000000000185e-01 3.099700000000000025e-02 -5.710460000000000536e-01 -4.545999999999999694e-03 1.782860000000000000e-01 6.959990000000000343e-01 1.350929999999999909e-01 -3.805279999999999774e-01 -6.304200000000000081e-02 2.333899999999999864e-01 -5.237570000000000281e-01 3.565720000000000001e-01 -2.917819999999999858e-01 -5.900630000000000042e-01 5.514470000000000205e-01 2.776999999999999955e-03 -4.408320000000000016e-01 -3.707500000000000240e-01 1.594800000000000106e-01 -1.891319999999999946e-01 -9.757339999999999902e-01 -2.089850000000000041e-01 2.480289999999999995e-01 6.374589999999999979e-01 3.271490000000000231e-01 -5.497809999999999642e-01 -4.837380000000000013e-01 -1.839800000000000046e-01 1.813899999999999957e-01 2.171929999999999972e-01 5.989300000000000179e-02 2.102700000000000125e-01 2.482640000000000124e-01 -8.293699999999999684e-02 -1.974460000000000104e-01 3.253920000000000146e-01 2.981249999999999734e-01 -3.239600000000000118e-02 -6.393600000000000672e-02 -2.349870000000000014e-01 -3.423889999999999989e-01 -6.036600000000000299e-02 5.430819999999999537e-01 1.035839999999999955e-01 1.409779999999999922e-01 -4.462490000000000068e-01 -1.751449999999999951e-01 1.920419999999999905e-01 2.304450000000000109e-01 3.778999999999999807e-03 -9.919699999999999351e-02 -3.943110000000000226e-01 -5.237519999999999953e-01 2.678670000000000218e-01 6.912200000000000288e-02 6.770469999999999544e-01 -4.209539999999999949e-01 -3.673599999999999782e-02 3.145209999999999950e-01 -1.534800000000000053e-01 -2.204369999999999941e-01 5.875240000000000462e-01 -9.383999999999999980e-03 -2.391469999999999985e-01 2.854110000000000258e-01 2.463500000000000065e-02 4.649320000000000119e-01 -3.342890000000000028e-01 -1.182880000000000043e-01
-4.789000000000000201e-02 2.117330000000000045e-01 -3.036900000000000016e-02 4.929999999999999660e-02 5.916400000000000131e-02 3.334700000000000164e-02 -1.838960000000000039e-01 -1.976819999999999966e-01 1.130619999999999958e-01 -3.104180000000000272e-01 7.953799999999999759e-02 7.732729999999999881e-01 -1.623380000000000101e-01 -6.374199999999999311e-02 2.942560000000000175e-01 2.414250000000000007e-01 3.956930000000000169e-01 -3.730169999999999875e-01 1.117100000000000037e-01 2.423460000000000059e-01 -2.376369999999999871e-01 -1.903400000000000092e-01 1.119829999999999992e-01 -2.011169999999999902e-01 6.510299999999999421e-02 2.367299999999999960e-01 -1.215689999999999965e-01 -2.598739999999999939e-01 1.034179999999999960e-01 1.468770000000000076e-01 -2.563960000000000128e-01 7.431200000000000305e-02 -1.392470000000000097e-01 -1.542100000000000137e-01 1.777000000000000107e-02 8.596700000000000175e-02 -1.412690000000000057e-01 1.671580000000000010e-01 -1.582550000000000068e-01 -1.607689999999999952e-01 5.326000000000000005e-03 3.643060000000000187e-01 2.556910000000000016e-01 1.542600000000000048e-02 -3.574910000000000032e-01 -2.341709999999999903e-01 -3.018999999999999982e-03 8.238000000000000531e-03 1.238080000000000014e-01 -1.720849999999999880e-01 -7.055300000000000460e-02 -6.675100000000000477e-02 -3.955199999999999688e-02 -1.597729999999999984e-01 -1.764930000000000110e-01 -3.019749999999999934e-01 -6.331599999999999728e-02 -7.620399999999999396e-02 8.289499999999999647e-02 -1.722900000000000126e-02 -2.688780000000000059e-01 -1.868559999999999943e-01 1.652869999999999895e-01 -3.069200000000000053e-02 -1.627619999999999900e-01 -3.479949999999999988e-01 -1.165719999999999951e-01 2.448140000000000038e-01 2.529009999999999869e-01 -1.993810000000000027e-01 1.540380000000000082e-01 2.428619999999999945e-01 -3.375719999999999832e-01 4.656879999999999908e-01 -5.611000000000000015e-02 7.850099999999999856e-01 4.274800000000000266e-01 -4.805320000000000147e-01 -1.012167000000000039e+00 1.007460000000000022e-01 1.163485000000000102e+00 7.371990000000000487e-01 -1.022072000000000092e+00 2.064950000000000119e-01 -7.502170000000000227e-01 1.848100000000000090e-02 8.547559999999999603e-01 6.296079999999999455e-01 -5.648480000000000167e-01 8.368999999999999773e-01 -2.181170000000000053e-01 -2.747149999999999870e-01 -2.256110000000000060e-01 -2.450589999999999991e-01 -4.144000000000000114e-03 -5.614590000000000414e-01 -2.796989999999999754e-01 -3.918349999999999889e-01 -4.293199999999999794e-02 2.975749999999999784e-01 3.294099999999999806e-02 -9.841999999999999360e-02 -8.037659999999999805e-01 5.900500000000000189e-02 -2.200709999999999888e-01 -7.989999999999999880e-02 -1.897800000000000042e-01 -1.410069999999999935e-01 5.529809999999999448e-01 -4.630079999999999751e-01 2.420999999999999888e-02 -1.684350000000000014e-01 -5.206520000000000037e-01 1.019349999999999978e-01 1.149010000000000031e-01 -2.119610000000000105e-01 -1.021380000000000066e-01 3.887189999999999812e-01 -2.133909999999999973e-01 -1.977369999999999961e-01 -2.538800000000000084e-02 1.221349999999999936e-01 -8.148999999999999994e-03 -1.724700000000000122e-01 -5.047049999999999592e-01 -2.841179999999999817e-01 -1.393179999999999974e-01 3.049680000000000168e-01 1.558579999999999965e-01 -1.819000000000000131e-02 1.975800000000000126e-02 1.056389999999999968e-01 7.713200000000000611e-02 1.029459999999999958e-01 -5.305360000000000076e-01 2.118109999999999993e-01 1.814050000000000107e-01 -1.099200000000000003e-02 2.312299999999999911e-01 -4.556000000000000327e-02 -1.648709999999999898e-01 -1.896239999999999870e-01 -1.566899999999999959e-01 4.780530000000000057e-01 3.271899999999999809e-02 -1.836440000000000017e-01 -5.441300000000000303e-02 -6.576200000000000101e-02 5.490310000000000468e-01 5.067110000000000225e-01 7.386930000000000440e-01 -3.138009999999999966e-01 -2.500040000000000040e-01 7.919800000000000451e-02 4.021230000000000082e-01 -3.557750000000000079e-01 4.499100000000000321e-02 1.233820000000000056e-01 -3.131410000000000027e-01 -1.343540000000000012e-01 -3.487870000000000137e-01 -2.150839999999999974e-01 5.585179999999999589e-01 8.189340000000000508e-01 6.116540000000000310e-01 1.502099999999999963e-02 3.858699999999999908e-01 2.131039999999999879e-01 5.596370000000000511e-01 5.251759999999999762e-01 -7.405340000000000256e-01 4.902719999999999856e-01 4.327869999999999773e-01 -4.487149999999999750e-01 -6.675200000000000577e-02 -5.845599999999999685e-01 2.770949999999999802e-01 -3.265000000000000107e-03 -5.501289999999999791e-01 1.994279999999999942e-01 7.961799999999999433e-02 -1.184339999999999976e-01 3.393809999999999882e-01 3.466879999999999962e-01 -4.326169999999999738e-01 -2.115589999999999971e-01 1.151859999999999967e-01 2.313959999999999906e-01 -2.278540000000000010e-01 -1.871440000000000048e-01 7.164089999999999625e-01 -3.357530000000000237e-01