4.394276049208911239e+00 1.316239888428192728e+00 -2.715929504256169857e-01 1.316239888428192728e+00 1.805434482064850599e+01 4.391980626361180029e+00 -2.715929504256169857e-01 4.391980626361180029e+00 2.032297786236996373e+01
4.057456066958565088e+00 -1.590032002033732850e+00 1.500169899839962906e-01 -1.590032002033732850e+00 6.657725878048396773e+00 8.830787878816082070e-01 1.500169899839962906e-01 8.830787878816082070e-01 7.323405908480343562e+00
1.413093404340762582e+01 -1.308183694691638532e+00 -1.711585748705859222e+00 -1.308183694691638532e+00 1.388889281099909390e+01 1.109059464945852114e-01 -1.711585748705859222e+00 1.109059464945852114e-01 1.281033285156874157e+01
1.361035435531163174e+01 5.268958032221722210e-01 2.758905743637567465e+00 5.268958032221722210e-01 1.629372587807917228e+01 -3.647574996841876360e-01 2.758905743637567465e+00 -3.647574996841876360e-01 2.073623542544977028e+01
1.439449301386618174e+01 -1.102861823256977347e+00 5.074957778639258565e-01 -1.102861823256977347e+00 1.792347609996848945e+01 1.647484214535501534e+00 5.074957778639258565e-01 1.647484214535501534e+00 7.772294357828803513e+00
7.974906149385176057e+00 1.982430835558506022e-01 -1.233930467862442093e+00 1.982430835558506022e-01 4.047607962482814514e+00 -3.313331811852853748e-01 -1.233930467862442093e+00 -3.313331811852853748e-01 1.379532841388962794e+01
1.282213576775998121e+01 2.167234588570380538e+00 1.944452694313297592e+00 2.167234588570380538e+00 1.873696655261467825e+01 -1.825431317363507056e+00 1.944452694313297592e+00 -1.825431317363507056e+00 1.431875146448087577e+01
1.418434334986145373e+01 2.509867173838369325e+00 1.650186889823959335e+00 2.509867173838369325e+00 1.616359761638229386e+01 -3.513848104486941848e-01 1.650186889823959335e+00 -3.513848104486941848e-01 2.379309445931270872e+01
1.255324549262282297e+01 -8.103435019678472129e-01 -3.149201673650225519e+00 -8.103435019678472129e-01 1.885344075066246816e+01 3.292102852806254365e+00 -3.149201673650225519e+00 3.292102852806254365e+00 1.372483671869477817e+01
1.954360035507699989e+00 1.782514314700760716e+00 6.162692024870702889e-01 1.782514314700760716e+00 9.422858881734164527e+00 8.576440218107777014e-01 6.162692024870702889e-01 8.576440218107777014e-01 1.720768180555768367e+01
1.107348264235817581e+01 1.417564295680956876e+00 1.631838316221770446e+00 1.417564295680956876e+00 1.869917352611525274e+01 -2.463766197548124648e+00 1.631838316221770446e+00 -2.463766197548124648e+00 1.269739064287052521e+01
1.507284229749964055e+01 -3.659644478267045087e-01 -3.256323874740969071e+00 -3.659644478267045087e-01 1.613667452775535338e+01 -4.426241663511030211e-01 -3.256323874740969071e+00 -4.426241663511030211e-01 1.144885091927074861e+01
1.005446298976204744e+01 1.588010549009762906e+00 1.185252694310872934e-01 1.588010549009762906e+00 1.413465114750298568e+01 -1.570513503238184227e-02 1.185252694310872934e-01 -1.570513503238184227e-02 1.140511200713671691e+01
1.529288449351910906e+01 8.322240649196099849e-01 2.352897274002696548e+00 8.322240649196099849e-01 1.278418724487409897e+01 -1.790274324844059350e+00 2.352897274002696548e+00 -1.790274324844059350e+00 1.060168439207138924e+01
1.557294829471183739e+01 -4.547899074440795442e-01 -1.342311449224522946e+00 -4.547899074440795442e-01 9.266533181213823411e+00 2.479456523400843881e+00 -1.342311449224522946e+00 2.479456523400843881e+00 1.335408150124716364e+01
1.333464445293976119e+01 -2.284649169526758783e+00 4.718278686461119809e-01 -2.284649169526758783e+00 1.909043205280599409e+01 2.736521668577270194e+00 4.718278686461119809e-01 2.736521668577270194e+00 1.003885411439747344e+01
9.628136325629835568e+00 -8.163560289109373924e-01 -3.654905540774954220e-01 -8.163560289109373924e-01 1.145643321925809310e+01 -5.656958539386648388e-01 -3.654905540774954220e-01 -5.656958539386648388e-01 1.582176472681609347e+01
2.041061858761431935e+01 -1.193871636874612951e+00 -4.450676809954622337e-01 -1.193871636874612951e+00 1.662108279452499815e+01 -2.532591860030911080e-01 -4.450676809954622337e-01 -2.532591860030911080e-01 1.123422888300785871e+01
1.298424445293863982e+01 -3.486080892619222715e-01 -4.982696589340117610e-01 -3.486080892619222715e-01 1.215496741477192444e+01 2.722356688229818023e+00 -4.982696589340117610e-01 2.722356688229818023e+00 1.971767485742318726e+01
1.547345282114742915e+01 -7.551719031341476152e-01 -1.112421148729304088e+00 -7.551719031341476152e-01 1.394113219225956257e+01 8.877658932448790896e-01 -1.112421148729304088e+00 8.877658932448790896e-01 1.320125076712723811e+01
1.964555415246543291e+01 1.822943375180159586e+00 9.473728413875824872e-01 1.822943375180159586e+00 1.120162647398024092e+01 -4.538554482073579699e+00 9.473728413875824872e-01 -4.538554482073579699e+00 1.431432351976170381e+01
1.181754766074523566e+01 -1.814302218846925330e+00 4.219653607215200775e-01 -1.814302218846925330e+00 2.135517768486597134e+01 -1.964185926213956712e+00 4.219653607215200775e-01 -1.964185926213956712e+00 1.695003910237440792e+01
1.282056599471572689e+01 1.377031570943918481e+00 -1.290842145306519140e-01 1.377031570943918481e+00 1.343053389125628350e+01 -3.055355902127166456e-01 -1.290842145306519140e-01 -3.055355902127166456e-01 2.035657248643498818e+01
1.145613703566483643e+01 -2.279554811722761531e+00 -2.179541016870153447e-01 -2.279554811722761531e+00 1.014237028024032838e+01 -1.437726993791836660e+00 -2.179541016870153447e-01 -1.437726993791836660e+00 1.073024288072401156e+01
1.145758093068195826e+01 -1.986429314067457375e+00 6.049179662755467257e-01 -1.986429314067457375e+00 1.662279325477605241e+01 1.237758640805271648e+00 6.049179662755467257e-01 1.237758640805271648e+00 1.032595227593002463e+01
1.311499470018135582e+01 1.580761455564830609e+00 4.561627183988195888e+00 1.580761455564830609e+00 1.368210483077781703e+01 2.544505845069620076e+00 4.561627183988195888e+00 2.544505845069620076e+00 1.413177816664840414e+01
1.571140671996903215e+01 -3.344623608480315369e+00 3.735245340445553786e-01 -3.344623608480315369e+00 1.246193949541193291e+01 1.242860403199100627e+00 3.735245340445553786e-01 1.242860403199100627e+00 8.786153011312451966e+00
1.062112144037879347e+01 1.230820540133257701e+00 1.422399492840855650e+00 1.230820540133257701e+00 1.467964376827307937e+01 -2.935179409163678699e+00 1.422399492840855650e+00 -2.935179409163678699e+00 1.403189765441276116e+01
1.302484381898416110e+01 1.900099201223261369e+00 3.203070064673599671e+00 1.900099201223261369e+00 1.996795739831405569e+01 -3.393834512499744882e+00 3.203070064673599671e+00 -3.393834512499744882e+00 1.370598463298405534e+01
1.289561151265688288e+01 1.115420007611017672e+00 -1.837374920761541963e+00 1.115420007611017672e+00 1.154516241920766007e+01 1.820921922156189643e+00 -1.837374920761541963e+00 1.820921922156189643e+00 1.809438143786684350e+01
1.331142365922851667e+01 1.199077063526081233e+00 1.844779510592933880e+00 1.199077063526081233e+00 9.096353493118947142e+00 9.377468746067733063e-01 1.844779510592933880e+00 9.377468746067733063e-01 1.407314121977361410e+01
9.695695803251455303e+00 8.892468112111574507e-01 -3.390709775590897701e-01 8.892468112111574507e-01 1.108730701157338494e+01 -7.820727779915936928e-01 -3.390709775590897701e-01 -7.820727779915936928e-01 1.353644173961467878e+01
2.120608626861089974e+01 2.871951616593424905e+00 -1.633756104988101088e+00 2.871951616593424905e+00 2.000834943584430192e+01 1.928021909477439344e+00 -1.633756104988101088e+00 1.928021909477439344e+00 1.346523179920618496e+01
1.559819794603688514e+01 2.657966375056035613e+00 -3.044145353122439168e+00 2.657966375056035613e+00 1.464541975407238539e+01 4.162097730455792899e+00 -3.044145353122439168e+00 4.162097730455792899e+00 1.276247698748846027e+01
1.261736924056267384e+01 9.794050969981831223e-01 2.481196602011221053e+00 9.794050969981831223e-01 1.026430906558368861e+01 -2.945634690005603851e+00 2.481196602011221053e+00 -2.945634690005603851e+00 9.564901128469751157e+00
1.268559513126911753e+01 -7.359199695725291424e-01 2.355325979467392805e-01 -7.359199695725291424e-01 1.231386250796376025e+01 -2.703482388749600229e+00 2.355325979467392805e-01 -2.703482388749600229e+00 1.186604772414085041e+01
1.365779556236135583e+01 -4.641270952214645584e-01 -5.779282363401239131e-02 -4.641270952214645584e-01 1.144022457211717558e+01 4.964259160659952208e+00 -5.779282363401239131e-02 4.964259160659952208e+00 1.557397012810857007e+01
1.061712296186984084e+01 4.412513553963629320e+00 1.653741092943027402e-01 4.412513553963629320e+00 1.742689468751603599e+01 1.531343223030122158e-01 1.653741092943027402e-01 1.531343223030122158e-01 1.736384460510173255e+01
2.183889732478129986e+01 3.270703588193532241e+00 2.561973272481873121e+00 3.270703588193532241e+00 8.374339343249770806e+00 -3.681954507429028300e+00 2.561973272481873121e+00 -3.681954507429028300e+00 1.306859013570802475e+01
1.770502589076276934e+01 -2.120119183473234692e+00 -2.970358615452620921e+00 -2.120119183473234692e+00 1.280406116398155447e+01 6.822248459512088914e+00 -2.970358615452620921e+00 6.822248459512088914e+00 1.042379652596203421e+01
1.251494895401486573e+01 -4.195736782059805714e-01 1.384162190951548910e+00 -4.195736782059805714e-01 9.546308203403127024e+00 6.227978293414084376e+00 1.384162190951548910e+00 6.227978293414084376e+00 1.606707878793010380e+01
1.591233766963367913e+01 -2.360005680240832682e+00 -1.690571522764369616e+00 -2.360005680240832682e+00 1.442199366049997167e+01 -6.617593001162253685e+00 -1.690571522764369616e+00 -6.617593001162253685e+00 1.659638848743730932e+01
9.082721643239354492e+00 -4.641456066960429894e+00 3.613995181956514813e+00 -4.641456066960429894e+00 1.918816523399053153e+01 -2.428261189306601509e+00 3.613995181956514813e+00 -2.428261189306601509e+00 1.533576447323269853e+01
1.038292319009275211e+01 -1.103335717006186378e+00 -2.184028198307976787e+00 -1.103335717006186378e+00 1.374311865098848351e+01 2.642912843928816091e+00 -2.184028198307976787e+00 2.642912843928816091e+00 1.830869988594664477e+01
1.563684250036691736e+01 2.146479523272989187e+00 1.155730594653114229e+00 2.146479523272989187e+00 1.155794274125664067e+01 -2.803799771785295825e+00 1.155730594653114229e+00 -2.803799771785295825e+00 1.035139444659068531e+01
1.768869136559472111e+01 9.737553949568311662e-01 -1.186622543429680432e+00 9.737553949568311662e-01 1.090548730826355950e+01 -9.716376822650533152e-01 -1.186622543429680432e+00 -9.716376822650533152e-01 8.595499632333778450e+00
9.600161785246838164e+00 -1.608447216944403957e+00 -1.794976239386993022e+00 -1.608447216944403957e+00 1.647712275902307866e+01 6.163484315982660888e+00 -1.794976239386993022e+00 6.163484315982660888e+00 7.902215291010403320e+00
1.037440791178665123e+01 -3.223514137198072449e-01 -8.105434258932948666e-01 -3.223514137198072449e-01 1.052146306583809121e+01 -2.572754355276379634e+00 -8.105434258932948666e-01 -2.572754355276379634e+00 1.210175803224354318e+01
1.694189405355987788e+01 -2.445728616718854553e+00 7.601181691415173081e-01 -2.445728616718854553e+00 1.830789278565502087e+01 2.135202332959779792e+00 7.601181691415173081e-01 2.135202332959779792e+00 1.335632509196607565e+01
1.170230262460945347e+01 2.565246101187348415e-01 1.445346316728338687e+00 2.565246101187348415e-01 1.460695290989830575e+01 9.512898694083886664e-01 1.445346316728338687e+00 9.512898694083886664e-01 1.052760147080831565e+01
1.250768505139027020e+01 7.919579054165016840e-01 -2.566112438197621248e+00 7.919579054165016840e-01 1.601406192473733725e+01 -3.246860808936450571e+00 -2.566112438197621248e+00 -3.246860808936450571e+00 1.432985094463813347e+01
1.848489950557444317e+01 -1.721478280720598608e+00 3.051764676058941639e+00 -1.721478280720598608e+00 8.717157043263545901e+00 4.697619880831536698e-01 3.051764676058941639e+00 4.697619880831536698e-01 1.619779201222366183e+01
1.721730036774865980e+01 -2.713545226330461801e+00 -3.529464384441347136e+00 -2.713545226330461801e+00 1.048541011794904598e+01 4.851065195907467320e+00 -3.529464384441347136e+00 4.851065195907467320e+00 1.502837033097230091e+01
1.342939358442224673e+01 -3.265638848748859679e+00 4.825275009524729874e-01 -3.265638848748859679e+00 1.946106879681630630e+01 1.438726613419074374e+00 4.825275009524729874e-01 1.438726613419074374e+00 1.531688276916264790e+01
1.438080192726793882e+01 2.177319639920735905e-01 -8.126759477647356178e-01 2.177319639920735905e-01 6.611735970605622015e+00 1.635007480669606217e+00 -8.126759477647356178e-01 1.635007480669606217e+00 1.931430242176829282e+01
1.498949623435749601e+01 6.818146316745498092e-01 -9.473210092587627251e-01 6.818146316745498092e-01 1.543885117286533593e+01 1.173968099407832089e+00 -9.473210092587627251e-01 1.173968099407832089e+00 1.184895052622016820e+01
1.452741280592949558e+01 -2.013937365291077697e+00 -9.811155572492346044e-01 -2.013937365291077697e+00 1.762033219227131298e+01 -2.147331051103599370e-03 -9.811155572492346044e-01 -2.147331051103599370e-03 1.953198995822137363e+01
2.341979206296309357e+01 -2.557634182840677894e+00 -1.863713046791802386e+00 -2.557634182840677894e+00 1.880370412076501196e+01 -3.697348649688491307e+00 -1.863713046791802386e+00 -3.697348649688491307e+00 1.371985342973825084e+01
1.523892724741775950e+01 7.218623557776318478e+00 4.678471611527557528e+00 7.218623557776318478e+00 1.077481110691915944e+01 -2.532369722335968843e-03 4.678471611527557528e+00 -2.532369722335968843e-03 1.218217187781245947e+01
2.587970787379889170e+00 -1.173227640424692853e+00 -3.680429161923761239e+00 -1.173227640424692853e+00 1.496851903136516349e+01 2.412859642457306497e-01 -3.680429161923761239e+00 2.412859642457306497e-01 8.226062431876151493e+00
1.392120644102328697e+01 -4.523834157488773045e-01 -9.221750221913563861e-01 -4.523834157488773045e-01 5.124124255119699711e+00 -4.162342081920228587e+00 -9.221750221913563861e-01 -4.162342081920228587e+00 1.954836150633858338e+01
1.615585241541865713e+01 4.499458247763831409e+00 3.663050589589485206e-02 4.499458247763831409e+00 1.786634228482947151e+01 7.326175225077283804e-01 3.663050589589485206e-02 7.326175225077283804e-01 1.282825936355054175e+01
1.130219561307020193e+01 -1.100670064666885439e+00 1.757797793843575151e+00 -1.100670064666885439e+00 1.589727673391662677e+01 -8.045457081298674762e-01 1.757797793843575151e+00 -8.045457081298674762e-01 1.340980844431821950e+01
1.420754933439303613e+01 -2.781326841647021375e+00 -4.874811715496740194e-01 -2.781326841647021375e+00 2.074555039945765955e+01 -1.901928134911614832e+00 -4.874811715496740194e-01 -1.901928134911614832e+00 1.198666849249422306e+01
2.058920248516782436e+01 3.953554862444476736e+00 2.111278103214552893e+00 3.953554862444476736e+00 1.117686552558406632e+01 3.090357398260155097e+00 2.111278103214552893e+00 3.090357398260155097e+00 1.453178891851984744e+01
1.087921582354178263e+01 -5.638047216957273733e+00 1.288939165719851454e+00 -5.638047216957273733e+00 1.885447739323886296e+01 -3.927275973132867470e+00 1.288939165719851454e+00 -3.927275973132867470e+00 1.825354309629260641e+01
1.296534053509909690e+01 -1.558703182457114478e+00 -2.496975782941916577e+00 -1.558703182457114478e+00 1.005870581973543487e+01 -3.022509141635112861e+00 -2.496975782941916577e+00 -3.022509141635112861e+00 1.513506306585282601e+01
2.061399305192332321e+01 1.228961988085578216e+00 1.074420793714601752e+00 1.228961988085578216e+00 1.364714776218381687e+01 7.727852009660790777e+00 1.074420793714601752e+00 7.727852009660790777e+00 1.372829466214603933e+01
9.252471865124009653e+00 -4.736634664653139204e+00 3.762012932686035871e+00 -4.736634664653139204e+00 1.099977735517650146e+01 -6.992057918115395232e+00 3.762012932686035871e+00 -6.992057918115395232e+00 1.870392727278700917e+01
1.431670779768741397e+01 1.537688956515624872e+00 -9.076027894031776233e-01 1.537688956515624872e+00 1.428700058328386824e+01 -5.767175859026913542e+00 -9.076027894031776233e-01 -5.767175859026913542e+00 1.502326116398864286e+01
1.377837190317574212e+01 -3.826047825547911341e+00 -3.201226321805583086e-01 -3.826047825547911341e+00 4.558480233309855301e+00 4.493949232929275617e+00 -3.201226321805583086e-01 4.493949232929275617e+00 7.910338126055440178e+00
5.731226575395506728e+00 -2.224494281736532741e+00 -5.014958387235491699e+00 -2.224494281736532741e+00 1.111103131739316296e+00 3.287837809063372418e+00 -5.014958387235491699e+00 3.287837809063372418e+00 9.907022797039374495e+00
1.523445487515959584e+01 2.229684899208338233e+00 3.705049423113139451e+00 2.229684899208338233e+00 1.471702213774194412e+01 4.513430708775667100e+00 3.705049423113139451e+00 4.513430708775667100e+00 4.744720476749018978e+00
2.147892319012819229e+01 -2.160851832135720851e+00 -2.105791302149491728e-01 -2.160851832135720851e+00 1.648815559787185592e+01 -8.328756688247723750e-01 -2.105791302149491728e-01 -8.328756688247723750e-01 1.755837798915205639e+01
1.767956891092244476e+01 -1.850281120837657722e+00 1.255255686576850493e+00 -1.850281120837657722e+00 2.126465657417720578e+01 -5.365580524931552908e+00 1.255255686576850493e+00 -5.365580524931552908e+00 1.829411284397880166e+01
7.494755521768579065e+00 7.494355673917684868e+00 -1.180735894513724071e+00 7.494355673917684868e+00 1.213499723599666247e+01 -1.380904171425736404e+00 -1.180735894513724071e+00 -1.380904171425736404e+00 1.362783659190354690e+01
9.231783441135101853e+00 -4.799655128708114615e-01 5.788849093463397821e+00 -4.799655128708114615e-01 7.952351768758756378e+00 1.826445746170407780e+00 5.788849093463397821e+00 1.826445746170407780e+00 6.105187980240113887e+00
1.426363169777599715e+01 -3.497328464573106643e+00 -4.651815088134546805e+00 -3.497328464573106643e+00 1.424440938257370348e+01 -1.778878661093547531e-01 -4.651815088134546805e+00 -1.778878661093547531e-01 1.385564620265614622e+01
2.218009341962199699e+01 4.119254773691360505e+00 1.762410853308532310e+00 4.119254773691360505e+00 1.600808642074340682e+01 6.656733663010990121e+00 1.762410853308532310e+00 6.656733663010990121e+00 1.498646775711645596e+01
1.959977897812776604e+01 -4.279564143540991239e+00 -1.944548953981105832e+00 -4.279564143540991239e+00 2.365571710417089690e+01 -4.429418232548696821e+00 -1.944548953981105832e+00 -4.429418232548696821e+00 1.416886775711384594e+01
1.099681551924394540e+01 3.284150323327339471e+00 2.665948522894275641e+00 3.284150323327339471e+00 1.257735483711383573e+01 1.492291416259362125e+00 2.665948522894275641e+00 1.492291416259362125e+00 1.671585413977698309e+01
7.976920197819314495e+00 -4.077100443781247030e+00 3.782338531773205559e-01 -4.077100443781247030e+00 1.040194558136959735e+01 2.775832635992129038e+00 3.782338531773205559e-01 2.775832635992129038e+00 1.246317606191377259e+01
1.409851674912579433e+01 -5.265914745801020480e+00 -4.650822873097141402e-02 -5.265914745801020480e+00 1.631072681633204624e+01 -6.252457867396664426e+00 -4.650822873097141402e-02 -6.252457867396664426e+00 8.041110587067649362e+00
2.138600299233405622e+01 4.914914974023558258e+00 -7.713287181462443742e-01 4.914914974023558258e+00 1.055661265376770785e+01 8.230134956283416514e+00 -7.713287181462443742e-01 8.230134956283416514e+00 2.160774083942491330e+01
3.116015782943893697e+01 3.188823633838001825e+00 7.929649296335710140e-01 3.188823633838001825e+00 1.573077712696795416e+01 3.624102447076364530e+00 7.929649296335710140e-01 3.624102447076364530e+00 1.733653647780355911e+01
1.972256188671190458e+01 -2.272283504508334939e+00 4.424227615076891773e+00 -2.272283504508334939e+00 1.962401420064591306e+01 -5.953593812622031578e+00 4.424227615076891773e+00 -5.953593812622031578e+00 1.061639731206636483e+01
1.096520532525373426e+01 8.932971218489287324e-01 -2.478005223793890988e+00 8.932971218489287324e-01 9.235515354410122058e+00 -2.400316267282929239e+00 -2.478005223793890988e+00 -2.400316267282929239e+00 5.293911499953511957e-01
4.555918245228193442e+00 -5.114350196542263166e-02 -1.439467072402213610e+00 -5.114350196542263166e-02 4.124334322315695189e+00 6.683538278200628291e+00 -1.439467072402213610e+00 6.683538278200628291e+00 1.509590019023459462e+01
1.434943608474216425e+01 -3.267645492593167500e+00 9.981164955021099017e-01 -3.267645492593167500e+00 2.352154593642607949e+01 1.723048053764853815e+00 9.981164955021099017e-01 1.723048053764853815e+00 1.034293840500323647e+01
2.144802383676179147e+01 2.297022239135014576e+00 -3.239804234827133866e-01 2.297022239135014576e+00 2.475318838603061877e+01 -4.119491720565965132e+00 -3.239804234827133866e-01 -4.119491720565965132e+00 1.220768809437143432e+01
1.987950957277808328e+01 2.632724128320821144e+00 -9.503939140387903661e-01 2.632724128320821144e+00 1.683480147082845946e+01 -3.946572334233474089e-01 -9.503939140387903661e-01 -3.946572334233474089e-01 3.088943121602359287e+00
8.288298009408999079e+00 -4.229131482199382397e+00 3.553840294166288327e+00 -4.229131482199382397e+00 2.469541777616610201e+00 -1.225555876763138041e+00 3.553840294166288327e+00 -1.225555876763138041e+00 -1.042277469256530198e+00
8.818955344265518193e+00 9.943697730474257979e-01 4.548743197681574202e+00 9.943697730474257979e-01 1.502098795491040484e+01 3.600629897310853256e+00 4.548743197681574202e+00 3.600629897310853256e+00 5.675388563476982284e+00
2.513021529106542218e+01 1.382547990368305557e+00 1.605396525933870722e+00 1.382547990368305557e+00 1.524981939905973505e+01 -8.347556941829626709e+00 1.605396525933870722e+00 -8.347556941829626709e+00 1.434294225946003287e+01
1.268494352736395570e+01 3.642043768237826828e+00 -2.042437631552104449e+00 3.642043768237826828e+00 1.988141255236475047e+01 3.011180119193082927e+00 -2.042437631552104449e+00 3.011180119193082927e+00 2.333951890460097545e+01
1.689527475598143269e+01 -3.677259997475925690e+00 2.360257436295099875e+00 -3.677259997475925690e+00 5.458648814522314652e+00 -5.054025003185913967e+00 2.360257436295099875e+00 -5.054025003185913967e+00 1.272728297201985370e+01
9.813310308133280202e+00 1.576563053130431102e+00 5.599054646905164967e-01 1.576563053130431102e+00 1.083200415877682765e+01 2.914372511737468030e-01 5.599054646905164967e-01 2.914372511737468030e-01 1.010655427922588778e+01
1.466844062385818326e+01 5.083613744152155611e+00 -3.782649524546124464e+00 5.083613744152155611e+00 4.348693394206864404e+00 -1.320497527581242725e+00 -3.782649524546124464e+00 -1.320497527581242725e+00 4.785986255879365103e+00
8.586836262231051009e+00 2.533332319014049983e-01 -5.683415138854210902e+00 2.533332319014049983e-01 5.548925573746642748e+00 1.512528160268555633e+00 -5.683415138854210902e+00 1.512528160268555633e+00 1.274934864971740112e+01
2.744111373154447087e+00 -1.002425966783980105e+00 5.332452390025905764e+00 -1.002425966783980105e+00 1.257525933819154851e+01 -2.125754076334923859e+00 5.332452390025905764e+00 -2.125754076334923859e+00 1.028303527326727718e+01
1.948026889824910413e+01 -1.661086446055767940e+00 -5.448889565124540368e+00 -1.661086446055767940e+00 9.107882439486422399e+00 6.984749587951812055e-02 -5.448889565124540368e+00 6.984749587951812055e-02 5.428371446701754088e+00
1.137048814508512962e+01 9.669579814916136051e-01 -4.691185292268057694e+00 9.669579814916136051e-01 1.726626692030365362e+01 4.470965386092635718e-01 -4.691185292268057694e+00 4.470965386092635718e-01 1.864525330296305938e+01
5.766154025630181756e+00 9.819522759001819701e-01 -3.163907189055368829e-01 9.819522759001819701e-01 4.638005528099002461e+00 -4.779929301397286778e+00 -3.163907189055368829e-01 -4.779929301397286778e+00 8.929587320936342110e+00
2.065006821358186251e+00 -4.234758970471239614e+00 2.096076480290705923e+00 -4.234758970471239614e+00 7.625150348699387237e+00 1.787890046918350961e+00 2.096076480290705923e+00 1.787890046918350961e+00 1.388908533033470949e+00
1.840238275649341304e+01 2.574916495507145964e+00 1.974041435279539236e+00 2.574916495507145964e+00 1.157119695705483231e+01 4.813331406126694745e+00 1.974041435279539236e+00 4.813331406126694745e+00 1.339351094209932391e+01
7.621810878685430168e+00 3.609197007745773345e+00 -2.653360720180909738e+00 3.609197007745773345e+00 2.072210006346164235e+01 3.100190693556243104e+00 -2.653360720180909738e+00 3.100190693556243104e+00 8.853186763056042352e+00
1.003775083051259642e+01 -4.540450057070415824e+00 -1.968547229624646455e+00 -4.540450057070415824e+00 1.184642556108766343e+01 3.172363230642818444e+00 -1.968547229624646455e+00 3.172363230642818444e+00 1.682347244838642908e+01
1.137798158999449782e+01 -4.128562343109419608e+00 -3.036437175107960407e+00 -4.128562343109419608e+00 1.646437945992325780e+01 2.505417015349702958e-01 -3.036437175107960407e+00 2.505417015349702958e-01 3.694038798033859816e+00
7.723816508202681952e+00 -4.581952783075366575e+00 -3.648855990882707179e+00 -4.581952783075366575e+00 1.774971999498505326e+01 7.145384759754024095e+00 -3.648855990882707179e+00 7.145384759754024095e+00 -4.118721643223500095e+00
9.137611867659460430e+00 -7.604928413869856740e+00 6.467546392818931622e+00 -7.604928413869856740e+00 7.045837454060793759e-01 -8.612011867657782815e+00 6.467546392818931622e+00 -8.612011867657782815e+00 1.054144064920318513e+01
8.418063446204138600e+00 -8.365113224319856711e-01 -1.538407201729270035e+00 -8.365113224319856711e-01 1.110791398507414840e+01 -4.035331152542366517e+00 -1.538407201729270035e+00 -4.035331152542366517e+00 6.133155116033281118e+00
2.193193599601273647e+01 1.875582604291523126e+00 -4.948561430217401913e-01 1.875582604291523126e+00 1.490182589075381792e+01 1.346746798533526301e-01 -4.948561430217401913e-01 1.346746798533526301e-01 5.727479852940822624e+00
9.645285355679339645e+00 -2.550288829727937134e+00 6.702930898969042817e-01 -2.550288829727937134e+00 2.298845249151503367e+01 -4.045275516685926109e-01 6.702930898969042817e-01 -4.045275516685926109e-01 7.522663420843094251e+00
1.476531487262228026e+01 3.511456421971402619e+00 -7.703883352376574845e-01 3.511456421971402619e+00 1.215245725881908356e+01 4.767993102589083598e+00 -7.703883352376574845e-01 4.767993102589083598e+00 1.901195820977290296e+01
7.190263978722089000e+00 -6.128342132642877083e+00 -2.846139216441193387e+00 -6.128342132642877083e+00 1.586622188416377099e+01 -6.772733967309572556e+00 -2.846139216441193387e+00 -6.772733967309572556e+00 1.045165999749756125e+01
5.285559122623701533e+00 7.809635704348512064e+00 9.725040192753260371e-01 7.809635704348512064e+00 1.782239604418015944e+01 2.945834613931051393e+00 9.725040192753260371e-01 2.945834613931051393e+00 4.810658349197562522e+00
1.890494707752963066e+01 2.195409052878825928e+00 4.229242551046852761e+00 2.195409052878825928e+00 3.289925903395824580e+00 -4.843601369357424247e+00 4.229242551046852761e+00 -4.843601369357424247e+00 1.014238508941999228e+01
6.015451756073479039e+00 2.476391023210647635e+00 -6.722330924327288848e+00 2.476391023210647635e+00 1.546960983902493503e+01 -3.931681704082544915e+00 -6.722330924327288848e+00 -3.931681704082544915e+00 9.382548294692067969e+00
2.845383948278391362e+00 -2.070841638145322960e+00 4.981348953990804240e+00 -2.070841638145322960e+00 6.936723418305405175e+00 1.306399188542272993e+00 4.981348953990804240e+00 1.306399188542272993e+00 1.909163159635867757e+01
2.228143263605442570e+01 -5.610576188682810717e+00 -6.984527450256869940e-01 -5.610576188682810717e+00 2.643180149621729669e+01 -6.113177532668185421e+00 -6.984527450256869940e-01 -6.113177532668185421e+00 1.145943948272963731e+01
1.398470820341730203e+01 4.667349917600807530e+00 -4.211797337404093788e+00 4.667349917600807530e+00 8.833660859670661836e+00 5.725080765835451890e-01 -4.211797337404093788e+00 5.725080765835451890e-01 1.094479827567841923e+01
1.562230729052789613e+01 2.019779586668045468e+00 -1.622345632057926368e+00 2.019779586668045468e+00 4.602530138216804012e+00 4.696138962865258115e+00 -1.622345632057926368e+00 4.696138962865258115e+00 1.654764407257725622e+01
6.895679776869999777e+00 2.129848814511683397e+00 4.058514923304454847e+00 2.129848814511683397e+00 1.041131238750630850e+01 1.890458425262789399e+00 4.058514923304454847e+00 1.890458425262789399e+00 8.724902244227179082e+00
6.520518828472708250e+00 1.482998656020965811e+00 -4.262437327260982123e+00 1.482998656020965811e+00 1.519139718529005556e+01 -3.070091035891636122e-01 -4.262437327260982123e+00 -3.070091035891636122e-01 5.656292126301822876e+00
2.456516363644209022e+01 3.157294890335935911e+00 7.894773678229854985e-02 3.157294890335935911e+00 1.685660798788190817e+01 9.771392925097771576e-01 7.894773678229854985e-02 9.771392925097771576e-01 2.360751322436853528e+01
1.337041602641521365e+01 -5.381367110452079494e+00 8.030203626246008586e-01 -5.381367110452079494e+00 -3.211000380383020048e-01 6.499897045792282224e-01 8.030203626246008586e-01 6.499897045792282224e-01 1.546970609869274504e+01
1.335486638776929169e+01 8.429125903412238330e+00 -1.037175706862701219e+00 8.429125903412238330e+00 8.183619322962613296e+00 2.291135590219058216e+00 -1.037175706862701219e+00 2.291135590219058216e+00 -2.831833548886944385e+00
1.543510445041065005e+01 -1.362703689620175629e+00 7.008140687229177601e+00 -1.362703689620175629e+00 2.515057791310175261e+00 1.270834943582098475e+00 7.008140687229177601e+00 1.270834943582098475e+00 1.566070749339349213e-02
5.986129580341167156e+00 2.619218156468362757e+00 -9.501229060509613689e+00 2.619218156468362757e+00 1.705713168510582634e+01 -2.022008368207294460e+00 -9.501229060509613689e+00 -2.022008368207294460e+00 1.200808256628660686e+01
2.553097390650984266e+01 -2.689443286429281876e+00 6.279232864226977462e+00 -2.689443286429281876e+00 1.250225008245402947e+01 -2.207471129714162927e+00 6.279232864226977462e+00 -2.207471129714162927e+00 1.735845406370448174e+01
2.304814829473571436e+01 -3.896324787637649667e+00 -1.419074832006560705e+00 -3.896324787637649667e+00 1.295622548501665428e+01 -2.554205857748743203e+00 -1.419074832006560705e+00 -2.554205857748743203e+00 7.064311905690115800e+00