9.737299999999999844e-01 2.828129999999999811e+00 3.212079999999999824e+00 7.918249999999999567e+00 5.623269999999999769e+00 3.149630000000000152e+00 2.327360000000000095e+00 6.735879999999999868e+00 9.877890000000000725e+00 6.460079999999999600e+00 2.234700000000000131e+00 9.912250000000000227e+00 2.397419999999999884e+00 6.708350000000000257e+00 3.310760000000000147e+00 6.704889999999999795e+00 1.913880000000000026e+00 3.614459999999999784e+00 2.617750000000000021e+00 1.263069999999999915e+00 9.334740000000000038e+00 6.272879999999999789e+00 6.417699999999999960e+00 9.433889999999999887e+00 8.628679999999999239e+00 -2.548999999999999877e-02 1.130230000000000068e+01 8.524440000000000239e+00 8.405239999999999156e+00 5.451489999999999725e+00 4.534489999999999910e+00 4.485400000000000276e+00 6.686350000000000016e+00 4.164419999999999789e+00 3.798000000000000043e+00 5.424799999999999622e-01 2.215800000000000214e+00 5.645290000000000141e+00 5.087599999999999900e-01 6.481869999999999798e+00 2.493860000000000188e+00 5.645700000000000163e-01 2.295580000000000176e+00 2.198890000000000011e+00 6.231609999999999872e+00 6.402680000000000149e+00 6.500049999999999883e+00 6.075380000000000003e+00 2.717729999999999979e+00 6.329299999999999926e+00 6.679199999999999804e+00 6.367750000000000021e+00 2.278820000000000068e+00 6.834489999999999732e+00 2.362029999999999852e+00 1.937100000000000044e+00 5.032100000000000461e-01 6.036920000000000286e+00 6.183209999999999873e+00 8.016400000000000192e-01 8.515079999999999316e+00 8.502980000000000871e+00 8.496700000000000585e+00 8.464940000000000353e+00 -2.309999999999999987e-03 2.341750000000000220e+00 1.383500000000000008e-01 4.443939999999999557e+00 6.421359999999999957e+00 4.209559999999999746e+00 8.518549999999999400e+00 1.162399999999999961e-01 4.576489999999999725e+00 2.500970000000000137e+00 5.170609999999999928e+00 4.315559999999999619e+00 6.275050000000000239e+00 4.814009999999999678e+00 2.118850000000000122e+00 3.838200000000000056e+00 1.119219999999999970e+01 6.020129999999999981e+00 4.230900000000000105e+00 1.125849999999999973e+01 1.370699999999999974e-01 5.964310000000000223e+00 5.190240000000000187e+00 8.382199999999999207e+00 2.666679999999999939e+00 5.382200000000000095e+00 2.629599999999999937e+00 -3.842000000000000276e-02 1.141999999999999993e+01 5.955580000000000318e+00 8.199650000000000105e+00 1.129579999999999984e+01 4.336090000000000444e+00 1.507810000000000095e+00 1.521579999999999933e+00 3.931560000000000166e+00 6.806320000000000370e+00 1.278580000000000050e+00 1.870279999999999943e+00 4.356340000000000323e+00 7.479639999999999844e+00 7.000569999999999737e+00 4.610719999999999708e+00 7.518150000000000333e+00 -3.073000000000000037e-02 6.991640000000000299e+00 1.019060000000000077e+00 3.602000000000000340e-02 1.751649999999999929e+00 1.180709999999999926e+00 1.706399999999999917e+00 8.514860000000000539e+00 7.389249999999999652e+00 6.819239999999999746e+00 8.373799999999999244e+00 7.487239999999999895e+00 8.632989999999999498e+00 1.645969999999999933e+00 9.621750000000000469e+00 1.072700000000000042e-01 6.791000000000000369e+00 9.651669999999999305e+00 6.684949999999999726e+00 8.283310000000000173e+00 3.313309999999999977e+00 1.680800000000000072e+00 3.233900000000000108e-01 3.509040000000000159e+00 4.246540000000000425e+00 6.144949999999999690e+00 8.554460000000000619e+00 4.549330000000000318e+00 2.313400000000000123e+00 8.539300000000000779e+00 6.410639999999999894e+00 4.209920000000000329e+00 2.277219999999999800e+00 2.480459999999999887e+00 4.303939999999999877e+00 2.373880000000000212e+00 4.044710000000000250e+00 4.171909999999999563e+00 9.898939999999999628e+00 4.487040000000000362e+00 4.280339999999999812e+00 3.625900000000000123e+00
1.325339999999999963e+00 2.425060000000000215e+00 3.242949999999999999e+00 7.540910000000000224e+00 5.721899999999999764e+00 3.203079999999999927e+00 2.398289999999999811e+00 6.965869999999999784e+00 9.521910000000000096e+00 6.171890000000000320e+00 1.780960000000000099e+00 9.632699999999999818e+00 3.104610000000000092e+00 6.785759999999999792e+00 3.147330000000000183e+00 6.451419999999999710e+00 2.042050000000000143e+00 3.762300000000000200e+00 2.300860000000000127e+00 1.701929999999999943e+00 9.401820000000000732e+00 6.267719999999999736e+00 6.829279999999999795e+00 9.273039999999999949e+00 2.081399999999999917e-01 8.441769999999999996e+00 1.151200000000000045e+01 6.572999999999999676e-02 1.895699999999999885e-01 5.347019999999999662e+00 4.477800000000000225e+00 4.381070000000000242e+00 6.816959999999999908e+00 4.452399999999999913e+00 4.241660000000000430e+00 7.116799999999999793e-01 2.128849999999999909e+00 6.062700000000000422e+00 3.541199999999999903e-01 6.121679999999999566e+00 2.366420000000000190e+00 3.441199999999999815e-01 2.705940000000000012e+00 2.229880000000000084e+00 6.450990000000000002e+00 6.774379999999999846e+00 6.585530000000000328e+00 5.808819999999999872e+00 2.556979999999999809e+00 6.118350000000000399e+00 6.760130000000000194e+00 6.388419999999999987e+00 2.362899999999999778e+00 6.795250000000000234e+00 2.054530000000000189e+00 2.141900000000000137e+00 3.868099999999999872e-01 6.413479999999999848e+00 6.246730000000000338e+00 1.622899999999999898e-01 9.357999999999999652e-02 1.989000000000000143e-02 8.441010000000000346e+00 8.488410000000000011e+00 8.513320000000000221e+00 2.334049999999999958e+00 6.250999999999999612e-02 4.249229999999999841e+00 6.307900000000000063e+00 4.269409999999999705e+00 1.514000000000000068e-02 8.172999999999999710e-02 4.562050000000000161e+00 2.361920000000000019e+00 5.163809999999999789e+00 4.393530000000000157e+00 6.275859999999999772e+00 5.196200000000000152e+00 2.160429999999999851e+00 4.079480000000000217e+00 1.127940000000000076e+01 6.091470000000000162e+00 4.007939999999999614e+00 1.117530000000000001e+01 4.120500000000000274e-01 5.930920000000000414e+00 5.114040000000000141e+00 8.329159999999999897e+00 2.612499999999999822e+00 5.127919999999999590e+00 2.677729999999999944e+00 8.449999999999999178e-03 1.119580000000000020e+01 6.051919999999999966e+00 8.464339999999999975e+00 1.130189999999999984e+01 4.180489999999999817e+00 1.592219999999999969e+00 1.358670000000000044e+00 4.310780000000000278e+00 6.790960000000000107e+00 1.078920000000000101e+00 1.686029999999999918e+00 4.093060000000000365e+00 7.483410000000000117e+00 6.983839999999999826e+00 4.608150000000000190e+00 7.441650000000000098e+00 4.021000000000000268e-02 6.885399999999999743e+00 1.017130000000000090e+00 8.370189999999999131e+00 1.689759999999999929e+00 1.190770000000000106e+00 1.783709999999999907e+00 -2.817000000000000060e-02 7.226239999999999775e+00 6.829349999999999810e+00 8.473140000000000782e+00 7.269250000000000433e+00 8.500569999999999737e+00 1.792939999999999978e+00 9.493880000000000763e+00 8.478899999999999437e+00 7.016460000000000363e+00 9.697770000000000223e+00 6.781690000000000218e+00 8.209730000000000416e+00 3.582040000000000113e+00 1.697270000000000056e+00 2.509000000000000119e-02 3.439459999999999962e+00 4.196559999999999846e+00 6.111159999999999926e+00 8.619989999999999597e+00 4.315450000000000230e+00 2.218980000000000175e+00 8.495039999999999480e+00 6.237800000000000011e+00 4.033350000000000435e+00 2.409940000000000193e+00 2.443729999999999958e+00 4.361570000000000391e+00 2.595419999999999838e+00 4.117820000000000036e+00 4.112079999999999735e+00 9.938719999999999999e+00 4.434969999999999857e+00 4.366150000000000198e+00 3.853520000000000056e+00
1.679019999999999957e+00 2.427389999999999937e+00 3.290090000000000181e+00 7.462060000000000137e+00 5.917119999999999713e+00 3.072929999999999939e+00 2.263860000000000205e+00 7.089489999999999625e+00 9.547109999999999985e+00 6.315680000000000405e+00 2.039359999999999840e+00 9.654579999999999274e+00 2.908949999999999925e+00 6.704710000000000392e+00 3.246049999999999880e+00 6.297460000000000058e+00 2.186010000000000009e+00 3.447080000000000144e+00 2.196940000000000115e+00 2.069420000000000037e+00 9.617839999999999279e+00 6.024910000000000210e+00 7.191749999999999865e+00 9.242990000000000705e+00 8.521280000000000854e+00 -7.772999999999999354e-02 1.151909999999999989e+01 1.019000000000000045e-01 8.425649999999999196e+00 5.455650000000000333e+00 4.202130000000000365e+00 4.266429999999999723e+00 6.875619999999999621e+00 4.257360000000000255e+00 4.127530000000000143e+00 6.294600000000000195e-01 2.072060000000000013e+00 6.020690000000000097e+00 4.095099999999999851e-01 6.350760000000000183e+00 2.533009999999999984e+00 5.949400000000000244e-01 2.459140000000000104e+00 2.122090000000000032e+00 6.508770000000000167e+00 6.634299999999999642e+00 6.361430000000000362e+00 5.977899999999999991e+00 2.249140000000000139e+00 6.256610000000000227e+00 6.458580000000000432e+00 6.285829999999999806e+00 2.186269999999999936e+00 6.468250000000000277e+00 2.049570000000000114e+00 2.021580000000000155e+00 3.461199999999999832e-01 6.450099999999999945e+00 6.368949999999999889e+00 1.213690000000000069e+01 8.578099999999999170e+00 -1.324999999999999963e-02 8.479129999999999612e+00 2.889999999999999861e-02 8.486079999999999401e+00 2.329649999999999999e+00 8.570869999999999322e+00 4.165759999999999685e+00 6.194340000000000401e+00 4.232719999999999594e+00 4.479999999999999954e-02 8.186000000000000221e-02 4.282960000000000100e+00 2.156320000000000014e+00 5.000289999999999679e+00 4.288109999999999644e+00 6.286419999999999675e+00 5.152359999999999829e+00 2.322839999999999794e+00 4.037390000000000256e+00 1.128480000000000061e+01 6.240560000000000329e+00 4.000180000000000291e+00 1.131700000000000017e+01 2.835300000000000042e-01 5.871990000000000265e+00 5.057010000000000005e+00 8.557470000000000354e+00 2.403439999999999799e+00 5.063679999999999737e+00 2.650980000000000114e+00 6.310999999999999943e-02 1.129149999999999920e+01 5.962650000000000006e+00 1.501099999999999934e-01 1.122080000000000055e+01 4.259179999999999744e+00 1.636100000000000110e+00 1.314300000000000024e+00 4.345930000000000071e+00 6.857800000000000118e+00 1.086959999999999926e+00 1.678609999999999935e+00 4.122169999999999668e+00 7.365879999999999761e+00 6.913170000000000037e+00 4.342080000000000162e+00 7.351930000000000298e+00 -3.975000000000000061e-02 6.881000000000000227e+00 9.841299999999999493e-01 1.614000000000000157e-02 1.706749999999999989e+00 1.361609999999999987e+00 1.815160000000000107e+00 -2.275999999999999898e-02 7.508320000000000327e+00 6.863819999999999588e+00 8.494910000000000849e+00 7.220189999999999664e+00 8.482279999999999376e+00 1.710900000000000087e+00 9.584830000000000183e+00 8.406819999999999737e+00 6.847590000000000288e+00 9.665540000000000020e+00 6.906279999999999752e+00 8.243850000000000122e+00 3.462520000000000042e+00 1.728080000000000060e+00 2.545999999999999999e-02 3.566149999999999931e+00 4.224179999999999602e+00 6.072230000000000238e+00 8.514989999999999171e+00 4.386989999999999945e+00 2.321320000000000050e+00 8.518060000000000187e+00 6.027470000000000105e+00 4.257469999999999644e+00 2.347189999999999888e+00 2.463919999999999888e+00 4.484549999999999592e+00 2.440570000000000128e+00 4.339959999999999596e+00 4.210630000000000095e+00 1.000939999999999941e+01 4.325319999999999609e+00 4.279420000000000002e+00 3.905580000000000052e+00
1.594260000000000010e+00 2.475960000000000161e+00 3.417030000000000012e+00 7.361159999999999926e+00 5.980990000000000251e+00 2.988090000000000135e+00 2.339900000000000091e+00 6.853320000000000078e+00 9.545170000000000599e+00 6.477850000000000108e+00 2.234379999999999811e+00 9.797719999999999985e+00 2.852679999999999882e+00 6.732179999999999609e+00 3.157210000000000072e+00 6.559470000000000134e+00 2.122419999999999973e+00 4.005589999999999762e+00 2.568810000000000038e+00 1.913559999999999928e+00 9.844609999999999417e+00 6.137129999999999974e+00 7.278150000000000119e+00 9.355880000000000862e+00 1.194899999999999990e-01 4.913000000000000006e-02 1.172409999999999997e+01 1.456999999999999962e-02 8.323380000000000223e+00 5.376570000000000071e+00 4.287069999999999936e+00 4.249290000000000234e+00 6.801269999999999705e+00 4.358970000000000233e+00 4.251079999999999970e+00 6.173199999999999799e-01 2.192060000000000120e+00 6.120630000000000237e+00 1.852100000000000135e-01 6.431129999999999569e+00 2.390210000000000168e+00 4.949899999999999856e-01 2.211190000000000211e+00 2.022240000000000038e+00 6.380130000000000301e+00 6.396700000000000053e+00 6.236849999999999561e+00 6.349169999999999980e+00 2.124029999999999863e+00 6.200610000000000177e+00 6.239189999999999792e+00 5.995029999999999859e+00 2.000750000000000028e+00 6.873639999999999972e+00 2.194760000000000044e+00 2.469500000000000028e+00 6.088700000000000223e-01 6.425209999999999866e+00 6.536999999999999922e+00 1.592399999999999927e-01 8.513960000000000861e+00 8.404130000000000322e+00 8.528140000000000498e+00 8.467579999999999885e+00 8.554729999999999279e+00 2.310890000000000111e+00 8.534819999999999851e+00 4.196720000000000006e+00 6.261689999999999756e+00 4.220620000000000260e+00 4.506999999999999895e-02 4.918000000000000149e-02 4.273100000000000342e+00 2.208040000000000003e+00 5.039760000000000240e+00 4.256669999999999732e+00 6.153100000000000236e+00 5.058200000000000252e+00 2.440150000000000041e+00 4.105339999999999989e+00 1.121320000000000050e+01 6.417600000000000193e+00 4.262880000000000003e+00 1.126329999999999920e+01 9.553000000000000380e-02 5.885799999999999699e+00 5.115249999999999631e+00 5.756000000000000005e-02 2.483960000000000168e+00 5.145529999999999937e+00 2.687660000000000160e+00 7.463000000000000189e-02 1.124869999999999948e+01 6.074230000000000018e+00 1.182600000000000040e-01 1.134399999999999942e+01 4.208999999999999631e+00 1.499049999999999994e+00 1.440150000000000041e+00 4.202799999999999869e+00 6.838129999999999598e+00 1.040540000000000020e+00 1.598559999999999981e+00 4.136309999999999931e+00 7.465659999999999741e+00 6.893060000000000187e+00 4.199250000000000149e+00 7.454030000000000378e+00 -3.500999999999999945e-02 6.945780000000000065e+00 1.080370000000000053e+00 8.546810000000000684e+00 1.765600000000000058e+00 1.328060000000000018e+00 1.656490000000000018e+00 8.337870000000000559e+00 7.372860000000000191e+00 6.889969999999999928e+00 8.460580000000000211e+00 7.285470000000000113e+00 8.642200000000000770e+00 1.476329999999999920e+00 9.658879999999999910e+00 8.428599999999999426e+00 6.725889999999999702e+00 9.700029999999999930e+00 6.856349999999999945e+00 8.420510000000000161e+00 3.411099999999999799e+00 1.647939999999999960e+00 4.037000000000000310e-02 3.467020000000000213e+00 4.214990000000000236e+00 6.269779999999999909e+00 8.563860000000000028e+00 4.475559999999999761e+00 2.405600000000000183e+00 8.610910000000000508e+00 6.202910000000000146e+00 4.108389999999999986e+00 2.469009999999999927e+00 2.317839999999999900e+00 4.398100000000000342e+00 2.369730000000000114e+00 4.448400000000000354e+00 4.373199999999999754e+00 9.945930000000000604e+00 4.211409999999999876e+00 4.182690000000000019e+00 3.723240000000000105e+00
1.081420000000000048e+00 2.614059999999999828e+00 3.285010000000000208e+00 6.909699999999999953e+00 6.118789999999999729e+00 3.399259999999999948e+00 2.294430000000000192e+00 6.798470000000000013e+00 9.361459999999999226e+00 6.369970000000000354e+00 2.024799999999999933e+00 9.937459999999999738e+00 2.549929999999999808e+00 6.558419999999999916e+00 3.153099999999999792e+00 6.435870000000000424e+00 2.158160000000000078e+00 3.873969999999999914e+00 2.201080000000000148e+00 2.337089999999999890e+00 9.708640000000000825e+00 6.013110000000000177e+00 7.413850000000000051e+00 9.416410000000000835e+00 3.084600000000000120e-01 8.491699999999999804e+00 1.162240000000000073e+01 8.386400000000000077e+00 8.486219999999999430e+00 5.423939999999999984e+00 4.416599999999999859e+00 4.141379999999999839e+00 6.830390000000000406e+00 4.249500000000000277e+00 4.245459999999999567e+00 6.424900000000000055e-01 2.270939999999999959e+00 6.345170000000000421e+00 2.843600000000000017e-01 6.372169999999999668e+00 2.272190000000000154e+00 4.359500000000000042e-01 2.249519999999999964e+00 2.050359999999999960e+00 6.553829999999999600e+00 6.228159999999999918e+00 6.249970000000000248e+00 6.506630000000000358e+00 2.189909999999999801e+00 6.257810000000000095e+00 6.296700000000000408e+00 6.122889999999999944e+00 2.107749999999999790e+00 6.875720000000000276e+00 2.127759999999999874e+00 2.422860000000000014e+00 1.917099999999999915e-01 6.523609999999999687e+00 6.501199999999999868e+00 7.105000000000000204e-02 4.902000000000000107e-02 8.424989999999999313e+00 8.469780000000000086e+00 8.437179999999999680e+00 8.551640000000000796e+00 2.363080000000000069e+00 2.849000000000000143e-02 4.189689999999999692e+00 6.434120000000000061e+00 4.248310000000000031e+00 6.933999999999999886e-02 1.102500000000000008e-01 4.283949999999999925e+00 2.283450000000000202e+00 5.192459999999999631e+00 4.211529999999999774e+00 6.131249999999999645e+00 4.953439999999999621e+00 2.422789999999999999e+00 4.336090000000000444e+00 1.113930000000000042e+01 6.315940000000000332e+00 4.140439999999999898e+00 1.138100000000000023e+01 6.214999999999999691e-02 5.844389999999999752e+00 5.158220000000000027e+00 8.484080000000000510e+00 2.473059999999999814e+00 5.328850000000000087e+00 2.668109999999999982e+00 8.413370000000000459e+00 1.114550000000000018e+01 6.184940000000000104e+00 1.064999999999999974e-01 1.140910000000000046e+01 4.022330000000000183e+00 1.625469999999999970e+00 1.357609999999999983e+00 4.383820000000000050e+00 6.926300000000000345e+00 1.157489999999999908e+00 1.664800000000000058e+00 4.231239999999999668e+00 7.580949999999999633e+00 6.932690000000000019e+00 4.241909999999999847e+00 7.569770000000000110e+00 8.508350000000000080e+00 6.854499999999999815e+00 1.234220000000000095e+00 1.807999999999999885e-02 1.579059999999999908e+00 1.116409999999999902e+00 1.743000000000000105e+00 8.388920000000000599e+00 7.325630000000000308e+00 6.844249999999999723e+00 8.509140000000000370e+00 7.389059999999999739e+00 9.916999999999999427e-02 1.572570000000000023e+00 9.529469999999999885e+00 8.540889999999999205e+00 6.785910000000000331e+00 9.593870000000000786e+00 6.752539999999999765e+00 8.458410000000000650e+00 3.473510000000000097e+00 1.548319999999999919e+00 8.358000000000000151e-02 3.603720000000000034e+00 4.427870000000000417e+00 6.157729999999999926e+00 8.294850000000000279e+00 4.339909999999999712e+00 2.378950000000000120e+00 8.635630000000000805e+00 6.184210000000000207e+00 4.087379999999999569e+00 2.331119999999999859e+00 2.378620000000000179e+00 4.307559999999999611e+00 2.296400000000000219e+00 4.494919999999999582e+00 4.411469999999999558e+00 9.875540000000000873e+00 4.218820000000000014e+00 4.096429999999999794e+00 3.723209999999999908e+00
1.143540000000000001e+00 2.561290000000000067e+00 3.263999999999999790e+00 6.662469999999999892e+00 6.036279999999999646e+00 3.553749999999999964e+00 2.138290000000000024e+00 6.176960000000000228e+00 9.390409999999999258e+00 6.250700000000000145e+00 2.014510000000000023e+00 1.026040000000000063e+01 2.507870000000000044e+00 6.585569999999999702e+00 3.120659999999999989e+00 6.458490000000000286e+00 2.243809999999999860e+00 3.803949999999999942e+00 2.128589999999999982e+00 2.590980000000000061e+00 9.172409999999999286e+00 6.082939999999999792e+00 7.391029999999999767e+00 9.304199999999999804e+00 1.871200000000000085e-01 -3.157000000000000084e-02 1.163020000000000032e+01 2.774000000000000077e-02 8.401659999999999684e+00 5.455989999999999895e+00 4.365890000000000271e+00 4.117270000000000429e+00 6.925539999999999807e+00 4.229000000000000092e+00 4.419590000000000352e+00 6.653700000000000170e-01 2.084569999999999812e+00 6.487230000000000274e+00 1.745000000000000023e-02 6.165969999999999729e+00 2.466499999999999915e+00 6.686299999999999466e-01 2.341369999999999951e+00 1.948059999999999903e+00 6.209620000000000140e+00 6.259380000000000166e+00 6.350609999999999644e+00 6.340309999999999668e+00 2.572290000000000187e+00 6.572779999999999845e+00 6.522899999999999920e+00 6.338280000000000136e+00 2.344460000000000210e+00 6.879850000000000243e+00 2.030800000000000161e+00 2.607639999999999958e+00 2.934800000000000186e-01 6.395880000000000010e+00 6.283479999999999954e+00 3.914699999999999847e-01 8.594670000000000698e+00 -1.414999999999999938e-02 8.525389999999999802e+00 3.277000000000000052e-02 8.555450000000000443e+00 2.375080000000000080e+00 6.450999999999999790e-02 4.330059999999999576e+00 6.282700000000000173e+00 4.302579999999999849e+00 -5.086999999999999855e-02 1.234173999999999971e+01 4.523159999999999847e+00 2.174929999999999808e+00 5.104849999999999888e+00 4.416570000000000107e+00 6.145559999999999690e+00 4.916649999999999743e+00 2.320040000000000102e+00 4.275459999999999816e+00 1.109639999999999915e+01 6.360260000000000247e+00 4.065089999999999648e+00 1.136849999999999916e+01 8.526859999999999218e+00 5.861049999999999649e+00 4.988430000000000142e+00 4.023999999999999799e-02 2.491740000000000066e+00 5.301980000000000359e+00 2.661270000000000024e+00 8.383660000000000778e+00 1.104449999999999932e+01 6.040650000000000297e+00 8.375709999999999766e+00 1.137270000000000003e+01 4.072820000000000107e+00 1.704939999999999900e+00 1.185550000000000104e+00 4.125390000000000335e+00 6.897499999999999964e+00 1.236410000000000009e+00 1.866430000000000033e+00 4.314530000000000420e+00 7.316150000000000375e+00 7.048659999999999926e+00 4.472129999999999939e+00 7.544559999999999711e+00 6.987000000000000155e-02 6.709430000000000227e+00 1.385199999999999987e+00 8.558410000000000295e+00 1.593010000000000037e+00 1.064240000000000075e+00 1.799299999999999899e+00 5.276000000000000134e-02 7.479180000000000383e+00 6.868529999999999802e+00 8.500460000000000349e+00 7.249480000000000146e+00 8.565170000000000172e+00 1.626440000000000108e+00 9.764350000000000307e+00 8.413439999999999586e+00 6.964290000000000092e+00 9.722360000000000113e+00 6.775970000000000049e+00 8.468719999999999359e+00 3.390660000000000007e+00 1.767390000000000017e+00 1.734199999999999908e-01 3.528220000000000134e+00 4.256219999999999892e+00 6.188360000000000305e+00 8.572449999999999903e+00 4.403410000000000046e+00 2.343679999999999986e+00 8.530870000000000175e+00 6.222940000000000360e+00 4.126079999999999970e+00 2.522110000000000074e+00 2.290789999999999882e+00 4.311499999999999666e+00 2.423999999999999932e+00 4.458400000000000141e+00 4.263370000000000104e+00 9.880380000000000607e+00 4.161990000000000300e+00 4.064250000000000362e+00 3.793350000000000222e+00
1.303600000000000092e+00 2.478380000000000027e+00 3.253800000000000026e+00 6.577499999999999680e+00 6.320879999999999832e+00 3.328920000000000101e+00 1.971959999999999935e+00 5.964710000000000178e+00 9.158549999999999969e+00 6.221910000000000274e+00 1.942139999999999977e+00 1.022390000000000043e+01 2.386760000000000215e+00 6.418400000000000105e+00 3.345470000000000166e+00 6.482750000000000234e+00 2.355579999999999785e+00 3.861489999999999867e+00 2.139489999999999892e+00 2.325769999999999893e+00 9.173069999999999169e+00 5.997670000000000279e+00 7.119860000000000078e+00 9.433040000000000092e+00 8.576800000000000423e+00 -8.276999999999999635e-02 1.158699999999999974e+01 1.762600000000000000e-01 -1.767000000000000168e-02 5.559280000000000221e+00 4.573210000000000441e+00 4.410190000000000055e+00 6.795239999999999725e+00 4.240269999999999762e+00 4.076939999999999564e+00 6.708800000000000319e-01 2.002949999999999786e+00 6.224960000000000271e+00 1.226248000000000005e+01 6.204360000000000319e+00 2.242319999999999869e+00 5.675299999999999789e-01 2.169659999999999922e+00 2.000989999999999824e+00 6.204290000000000305e+00 6.451670000000000016e+00 6.512529999999999930e+00 6.213680000000000092e+00 2.539680000000000160e+00 6.516700000000000159e+00 6.371199999999999974e+00 6.323220000000000063e+00 2.208450000000000024e+00 7.154340000000000366e+00 2.147769999999999957e+00 2.059569999999999901e+00 4.241999999999999937e-02 6.151489999999999903e+00 6.330840000000000245e+00 4.378199999999999870e-01 8.601210000000000022e+00 1.396999999999999978e-02 8.567970000000000752e+00 9.983000000000000207e-02 2.021999999999999839e-02 2.307560000000000056e+00 7.401000000000000634e-02 4.440719999999999779e+00 6.134509999999999685e+00 3.980170000000000208e+00 8.412850000000000605e+00 1.205500000000000044e-01 4.519199999999999662e+00 2.336370000000000058e+00 5.349800000000000111e+00 4.426199999999999690e+00 6.108749999999999680e+00 4.977800000000000225e+00 2.267549999999999955e+00 4.058919999999999639e+00 1.103560000000000052e+01 6.354630000000000223e+00 4.232039999999999580e+00 1.149579999999999913e+01 6.228000000000000203e-02 6.057450000000000223e+00 4.890460000000000029e+00 8.496980000000000643e+00 2.726609999999999978e+00 5.017190000000000261e+00 2.671699999999999964e+00 8.400090000000000501e+00 1.106359999999999921e+01 5.961750000000000327e+00 8.350590000000000401e+00 1.144819999999999993e+01 4.066460000000000186e+00 1.511209999999999942e+00 1.245500000000000052e+00 3.908999999999999808e+00 6.772949999999999804e+00 1.270739999999999981e+00 1.855509999999999993e+00 4.299859999999999793e+00 7.187739999999999796e+00 7.123370000000000424e+00 4.535529999999999617e+00 7.460770000000000124e+00 -1.297000000000000063e-02 6.950639999999999930e+00 1.055630000000000068e+00 8.554759999999999920e+00 1.731000000000000094e+00 1.090940000000000021e+00 1.794720000000000093e+00 5.091999999999999998e-02 7.460239999999999760e+00 6.924199999999999910e+00 -5.429999999999999931e-03 7.394680000000000142e+00 8.527960000000000207e+00 1.726220000000000088e+00 9.681319999999999482e+00 8.458859999999999602e+00 6.834800000000000431e+00 9.705809999999999604e+00 7.014219999999999899e+00 1.196500000000000064e-01 3.565599999999999881e+00 1.810619999999999896e+00 1.484000000000000041e-01 3.570139999999999869e+00 4.311659999999999826e+00 6.011540000000000106e+00 8.533099999999999241e+00 4.415510000000000268e+00 2.293509999999999938e+00 8.649240000000000705e+00 6.131409999999999805e+00 4.153999999999999915e+00 2.324689999999999923e+00 2.434540000000000148e+00 4.231910000000000061e+00 2.308829999999999938e+00 4.488870000000000360e+00 4.214750000000000441e+00 1.001479999999999926e+01 4.208789999999999587e+00 4.051009999999999778e+00 3.793520000000000003e+00