-2.215164380999999878e+02
-2.224072309599999926e+02
-2.229172546800000134e+02
-2.230755905599999949e+02
-2.231137922599999968e+02
-2.228080586700000083e+02
-2.225999666499999989e+02
-2.225055058400000121e+02
-2.228198000399999898e+02
-2.228898441199999922e+02
-2.228586401999999964e+02
-2.227180545800000004e+02
-2.225929431300000090e+02
-2.223389304600000003e+02
-2.229335104099999967e+02
-2.228921987800000011e+02
-2.228236052000000029e+02
-2.226510886300000038e+02
-2.226639876099999924e+02
-2.228022785999999940e+02
-2.229388784999999871e+02
-2.227292047500000081e+02
-2.228291687500000080e+02
-2.231416568900000073e+02
-2.226992015600000059e+02
-2.227519076000000098e+02
-2.229531797699999913e+02
-2.228152418699999942e+02
-2.222379194600000005e+02
-2.223244611300000031e+02
-2.224295927199999880e+02
-2.224183270499999878e+02
-2.219582670400000097e+02
-2.222333754800000065e+02
-2.220528204299999970e+02
-2.224622638399999914e+02
-2.224282977100000096e+02
-2.224547300000000121e+02
-2.221597828200000038e+02
-2.222534247600000015e+02
-2.220766854400000057e+02
-2.223832873099999858e+02
-2.220305051199999866e+02
-2.221164249599999891e+02
-2.221693792700000074e+02
-2.220408149600000058e+02
-2.218931316199999912e+02
-2.215787420300000008e+02
-2.214858625399999994e+02
-2.220288429100000087e+02
-2.221939491299999929e+02
-2.222547744999999964e+02
-2.218221178599999917e+02
-2.217427807599999880e+02
-2.216105237300000113e+02
-2.217893057500000111e+02
-2.220584117900000081e+02
-2.221937121400000024e+02
-2.219722557000000052e+02
-2.222388128700000038e+02
-2.212921020500000111e+02
-2.212838553699999977e+02
-2.210595166200000108e+02
-2.215989040199999920e+02
-2.208986078599999985e+02
-2.219362863100000141e+02
-2.214417826499999933e+02
-2.208415285600000004e+02
-2.212657502600000043e+02
-2.215172585699999956e+02
-2.208114066299999934e+02
-2.212257920499999955e+02
-2.202042066500000033e+02
-2.207448659700000064e+02
-2.218220342399999936e+02
-2.208360365899999920e+02
-2.213370042200000114e+02
-2.208672874600000000e+02
-2.198970941899999900e+02
-2.210929196600000068e+02
-2.215845528199999990e+02
-2.213251556799999946e+02
-2.206598298600000021e+02
-2.208276113000000009e+02
-2.207018897799999877e+02
-2.206257019800000023e+02
-2.215940296299999943e+02
-2.209561574200000109e+02
-2.210183567299999936e+02
-2.209797608899999943e+02
-2.199740629899999931e+02
-2.200689865399999974e+02
-2.200573584900000128e+02
-2.195299904500000139e+02
-2.204582503499999859e+02
-2.210549238099999911e+02
-2.204636967499999969e+02
-2.200526934199999971e+02
-2.201040281800000002e+02
-2.205275513599999897e+02
-2.205971225499999946e+02
-2.198479164899999887e+02
-2.206109694499999989e+02
-2.194399689400000000e+02
-2.190235708200000033e+02
-2.195135924600000124e+02
-2.202263497900000004e+02
-2.206316392699999938e+02
-2.201891278699999930e+02
-2.200850650600000051e+02
-2.203950273499999923e+02
-2.197714497499999879e+02
-2.199464477999999872e+02
-2.202249552499999936e+02
-2.189550289800000087e+02
-2.185562762499999963e+02
-2.199368487799999912e+02
-2.192366432800000098e+02
-2.189613698299999953e+02
-2.190382714300000089e+02
-2.196950621299999966e+02
-2.193619801899999970e+02
-2.200282021300000110e+02
-2.202048886800000105e+02
-2.193689377000000036e+02
-2.185260386699999913e+02
-2.190206249199999888e+02
-2.201318060399999865e+02
-2.187321291499999916e+02
-2.197191857100000050e+02
-2.178310474499999998e+02
-2.186465534499999990e+02
-2.185966173799999979e+02
-2.201876366299999859e+02
-2.194815846799999974e+02
-2.193336735599999940e+02
-2.192689322500000060e+02
-2.187411799200000075e+02
-2.181775102199999878e+02
-2.181942612299999951e+02
-2.192453661499999953e+02
-2.188113972799999942e+02
-2.181076958200000036e+02
-2.187253404900000078e+02
-2.184974653300000114e+02
-2.187998728800000094e+02
-2.186653472300000089e+02
-2.173076544500000011e+02
-2.182364255299999911e+02
-2.180957987200000048e+02
-2.182196924799999920e+02
-2.189209902199999931e+02
-2.182292589399999940e+02
-2.185817144300000052e+02
-2.189666236399999946e+02
-2.182851391300000046e+02
-2.188891285400000015e+02
-2.171695257799999865e+02
-2.173839905600000009e+02
-2.184449526699999922e+02
-2.177253338200000030e+02
-2.190501460300000076e+02
-2.185976066199999934e+02
-2.177453972799999917e+02
-2.167918568400000083e+02
-2.179848967499999901e+02
-2.179558920000000057e+02
-2.184888935300000128e+02
-2.185650224499999865e+02
-2.183260090100000070e+02
-2.164204745600000024e+02
-2.173430109399999992e+02
-2.170727853500000037e+02
-2.176089910000000032e+02
-2.173706443300000046e+02
-2.169837180300000057e+02
-2.162527032899999995e+02
-2.180039509899999928e+02
-2.175798964299999909e+02
-2.162810763699999939e+02
-2.180611168799999859e+02
-2.171271322899999916e+02
-2.179942454799999894e+02
-2.183085780399999862e+02
-2.167395879700000023e+02
-2.162441578400000139e+02
-2.160305792899999915e+02
-2.170176037299999905e+02
-2.172777420099999972e+02
-2.173135331000000008e+02
-2.166497785999999905e+02
-2.170487122600000021e+02
-2.162379527299999893e+02
-2.175540915299999938e+02
-2.173459387400000082e+02
-2.175053542500000106e+02
-2.174417235100000028e+02
-2.163789218599999913e+02
-2.159802675800000031e+02
-2.177479957099999979e+02
