3.148000000000000190e-03 -4.830650000000000222e-01 1.362039999999999917e-01 -9.195000000000000395e-02 3.122190000000000243e-01 -5.970239999999999991e-01 4.299510000000000276e-01 -3.712300000000000322e-02 -1.152249999999999941e-01 -3.486779999999999879e-01 -2.002999999999999919e-02 8.024900000000000089e-02 2.288989999999999914e-01 -1.118249999999999938e-01 -4.904399999999999732e-02 -5.139550000000000507e-01 9.415919999999999845e-01 1.628640000000000088e-01 -9.601200000000000012e-02 9.629500000000000559e-02 9.953599999999999948e-02 5.875439999999999552e-01 1.542699999999999974e-02 2.755879999999999996e-01 -9.947300000000000586e-02 -1.100109999999999977e-01 6.519979999999999665e-01 1.966779999999999917e-01 2.400940000000000019e-01 5.461799999999999988e-02 3.469300000000000161e-02 -3.304969999999999852e-01 8.621199999999999697e-02 3.308999999999999875e-03 1.876460000000000072e-01 -8.815999999999999184e-03 -7.628500000000000281e-01 1.752700000000000091e-01 -3.186720000000000108e-01 -3.212920000000000220e-01 -5.972299999999999831e-02 -7.542699999999999405e-02 3.709199999999999997e-02 -4.122499999999999776e-02 7.108599999999999641e-02 1.565199999999999925e-02 -1.596509999999999874e-01 -6.702199999999999824e-02 -1.870570000000000010e-01 4.176219999999999932e-01 -1.140169999999999934e-01 1.680299999999999849e-02 4.246500000000000274e-02 6.377299999999999636e-02 -6.821989999999999998e-01 2.667439999999999811e-01 -1.454459999999999920e-01 6.363950000000000440e-01 -9.740100000000000147e-02 -3.523160000000000180e-01 1.085700000000000109e+00 -3.701300000000000145e-01 7.620970000000000244e-01 2.039239999999999942e+00 2.418430000000000024e-01 -7.207519999999999483e-01 -5.195210000000000106e-01 -1.568980999999999959e+00 1.058459000000000039e+00 -2.524689999999999990e-01 -2.789280000000000093e-01 8.945849999999999635e-01 -1.233429999999999943e-01 -3.575059999999999905e-01 -8.023500000000000076e-02 8.097300000000000331e-02 7.782919999999999838e-01 9.227419999999999511e-01 6.171900000000000303e-02 2.277510000000000090e-01 3.859630000000000005e-01 2.923979999999999912e-01 3.493899999999999784e-02 2.421959999999999946e-01 5.853650000000000242e-01 1.630644999999999900e+00 -1.095601999999999965e+00 7.026970000000000161e-01 -2.137390000000000123e-01 -3.184930000000000261e-01 3.971640000000000170e-01 2.032269999999999910e-01 -3.809710000000000041e-01 -1.293799999999999985e-02 4.164359999999999729e-01 4.716000000000000053e-02 6.042920000000000513e-01 -4.194010000000000238e-01 -9.485909999999999620e-01 2.602659999999999973e-01 6.685290000000000399e-01 -7.958300000000000096e-02 -6.129970000000000141e-01 -4.980140000000000122e-01 -3.566739999999999911e-01 -1.762479999999999880e-01 -3.812299999999999717e-02 4.067069999999999852e-01 2.091520000000000046e-01 -2.741290000000000115e-01 5.196180000000000243e-01 -4.038820000000000188e-01 -2.735469999999999846e-01 2.817109999999999892e-01 -8.838899999999999535e-02 3.160839999999999761e-01 -1.839550000000000074e-01 -9.265309999999999935e-01 3.910429999999999739e-01 -8.718190000000000106e-01 5.838600000000000456e-01 -2.897649999999999948e-01 -4.333790000000000142e-01 -6.041950000000000376e-01 4.683410000000000073e-01 -4.038400000000000323e-02 -9.862700000000000633e-02 -4.916360000000000174e-01 6.560890000000000333e-01 -1.457008999999999999e+00 -3.501310000000000255e-01 -2.547030000000000127e-01 -4.997360000000000135e-01 1.435510000000000119e-01 2.631999999999999791e-03 -2.002329999999999943e-01 -4.044110000000000205e-01 -2.992299999999999960e-01 1.099689999999999973e-01 -3.168199999999999905e-01 -1.383929999999999882e-01 -4.017720000000000180e-01 -1.801000000000000101e-01 -8.010100000000000553e-02 3.437740000000000240e-01 -9.468200000000000227e-02 -1.417279999999999929e-01 -6.537700000000000455e-02 -3.454599999999999893e-01 4.055139999999999856e-01
-2.980700000000000016e-02 1.110590000000000049e-01 3.647600000000000148e-02 3.781740000000000101e-01 2.884360000000000257e-01 -1.637180000000000024e-01 -6.011560000000000237e-01 8.150899999999999812e-02 1.426040000000000085e-01 3.153790000000000204e-01 -1.895290000000000030e-01 4.971200000000000063e-01 -2.452560000000000018e-01 4.499999999999999660e-03 1.298600000000000032e-01 -1.553070000000000006e-01 -1.027760000000000062e-01 -2.164159999999999973e-01 -2.074149999999999883e-01 3.612200000000000133e-02 1.074289999999999967e-01 -2.688590000000000146e-01 1.003769999999999940e-01 -2.081459999999999977e-01 -2.632749999999999813e-01 3.869750000000000134e-01 3.490809999999999746e-01 3.231300000000000144e-02 -2.387660000000000060e-01 2.195989999999999887e-01 2.480999999999999872e-01 -1.197909999999999947e-01 1.589349999999999929e-01 -5.453310000000000102e-01 -5.414499999999999869e-02 5.487399999999999917e-02 1.728739999999999999e-01 -1.338749999999999940e-01 7.881900000000000017e-02 4.543110000000000204e-01 -4.065659999999999830e-01 1.422879999999999978e-01 -3.184670000000000001e-01 -2.633719999999999950e-01 3.234859999999999958e-01 -1.467769999999999908e-01 -1.294269999999999865e-01 2.251170000000000115e-01 -3.138540000000000219e-01 4.537720000000000087e-01 -2.378480000000000039e-01 -5.040900000000000242e-02 -2.517260000000000053e-01 -1.618500000000000147e-02 9.196000000000000008e-02 2.336779999999999968e-01 -2.308020000000000072e-01 1.043789999999999996e-01 -2.069700000000000012e-02 -1.687529999999999863e-01 -9.677999999999999936e-01 7.062920000000000309e-01 -6.697370000000000267e-01 -9.286860000000000115e-01 -3.499090000000000256e-01 -2.730580000000000229e-01 -8.870300000000000407e-02 1.234680000000000000e+00 -4.045420000000000127e-01 1.561079999999999968e-01 1.403399999999999960e-02 -5.371110000000000051e-01 3.516400000000000081e-02 6.685699999999999976e-02 -1.077739999999999948e-01 1.572429999999999939e-01 6.043319999999999803e-01 8.492299999999999849e-02 1.046509999999999940e-01 -1.742420000000000080e-01 4.070000000000000267e-04 8.705279999999999685e-01 3.155020000000000047e-01 3.212139999999999995e-01 -1.059530000000000055e-01 -5.201700000000000212e-01 1.782860000000000000e-01 3.017219999999999902e-01 -2.992070000000000007e-01 -5.266400000000000248e-02 6.162220000000000475e-01 4.401999999999999663e-03 5.699600000000000222e-01 -5.145079999999999654e-01 2.063840000000000119e-01 -3.715600000000000153e-02 -1.449280000000000013e-01 -3.947599999999999998e-01 -6.460000000000000464e-02 -4.605779999999999874e-01 2.679690000000000127e-01 1.699930000000000052e-01 3.061639999999999917e-01 -3.519419999999999771e-01 1.799099999999999866e-01 -2.153789999999999871e-01 -1.094890000000000030e-01 -2.303099999999999939e-02 -3.775569999999999760e-01 1.557560000000000056e-01 6.168109999999999982e-01 3.679560000000000053e-01 -5.522839999999999971e-01 6.923160000000000425e-01 -2.383369999999999933e-01 -2.256000000000000193e-03 7.466289999999999871e-01 4.311800000000000077e-01 2.720730000000000093e-01 4.122839999999999838e-01 4.815030000000000143e-01 -7.105540000000000189e-01 -2.623820000000000041e-01 1.089406000000000097e+00 -5.873300000000000187e-01 -4.872599999999999848e-02 1.081233000000000111e+00 3.276060000000000083e-01 -9.117509999999999781e-01 -1.928189999999999904e-01 3.470210000000000239e-01 6.471000000000000363e-02 3.013140000000000263e-01 -3.831080000000000041e-01 -2.534520000000000106e-01 -8.735099999999999809e-02 2.401810000000000056e-01 -4.191650000000000098e-01 5.271580000000000155e-01 2.477800000000000002e-01 -6.755719999999999503e-01 -1.004879999999999940e-01 2.502010000000000067e-01 -5.731819999999999693e-01 -5.734799999999999898e-01 3.198869999999999769e-01 -1.298999999999999877e-01 -4.825650000000000217e-01 -9.314599999999999547e-01 1.825390000000000068e-01
-6.311600000000000543e-02 6.691199999999999926e-02 -1.783900000000000069e-02 1.239969999999999961e-01 -9.920999999999999264e-03 -1.474910000000000110e-01 2.155040000000000011e-01 -2.989180000000000170e-01 -2.189190000000000025e-01 -3.639589999999999770e-01 8.269999999999999574e-02 3.071450000000000014e-01 8.182499999999999496e-02 1.880899999999999933e-02 -1.872520000000000018e-01 3.103369999999999740e-01 -6.076740000000000475e-01 1.103900000000000020e-01 3.590570000000000150e-01 9.663900000000000268e-02 -8.822999999999999246e-03 1.895340000000000080e-01 2.658920000000000172e-01 -6.579699999999999438e-02 6.228299999999999809e-02 1.548080000000000012e-01 1.011719999999999980e-01 -1.414199999999999902e-01 6.540200000000000180e-02 1.580499999999999960e-02 1.842360000000000109e-01 -1.049100000000000033e-02 8.581700000000000439e-02 -3.412999999999999923e-01 4.535200000000000342e-02 1.496230000000000060e-01 3.015180000000000082e-01 -2.765400000000000150e-02 2.459300000000000028e-02 1.165540000000000048e-01 -5.218970000000000553e-01 1.226060000000000066e-01 -9.358600000000000252e-02 -1.864180000000000004e-01 5.502599999999999852e-02 -1.930800000000000016e-01 3.780599999999999933e-02 1.560100000000000098e-01 3.836799999999999933e-02 1.066830000000000001e-01 1.533589999999999953e-01 -4.969900000000000012e-02 -6.553399999999999503e-02 1.314500000000000113e-01 4.029019999999999824e-01 4.243850000000000122e-01 -1.907459999999999989e-01 9.812600000000000489e-02 -3.963699999999999862e-02 9.085000000000000020e-02 -3.949520000000000253e-01 -3.561449999999999894e-01 3.544519999999999893e-01 -7.606939999999999813e-01 -2.936690000000000134e-01 1.911210000000000131e-01 4.063479999999999870e-01 -2.930530000000000079e-01 2.481999999999999831e-02 -4.966899999999999787e-02 -5.549799999999999872e-02 1.452499999999999972e-02 2.771199999999999775e-01 2.129000000000000059e-01 -3.339700000000000307e-02 2.619949999999999779e-01 1.031790000000000068e-01 2.731939999999999924e-01 4.377999999999999947e-02 -1.068920000000000009e-01 -9.402999999999999900e-03 8.504930000000000545e-01 6.088130000000000486e-01 2.392199999999999882e-02 -2.707069999999999754e-01 -2.622349999999999959e-01 -2.496470000000000078e-01 -3.777940000000000187e-01 8.096790000000000376e-01 1.908390000000000086e-01 -2.465690000000000104e-01 -1.061649999999999955e-01 -2.997999999999999970e-02 6.972169999999999757e-01 -3.243400000000000172e-01 -4.865320000000000200e-01 -2.839800000000000102e-01 1.150000000000000050e-01 5.211329999999999574e-01 -3.503769999999999940e-01 1.989360000000000017e-01 -8.678299999999999903e-02 -4.714900000000000341e-02 3.528900000000000092e-02 3.597230000000000150e-01 5.846599999999999714e-02 -2.089699999999999891e-02 -3.471040000000000236e-01 1.179690000000000044e-01 2.605089999999999906e-01 4.062859999999999805e-01 -2.677669999999999773e-01 1.260139999999999871e-01 -1.155199999999999977e-01 3.310099999999999848e-02 -2.219639999999999946e-01 -1.299879999999999924e-01 6.196299999999999725e-02 -3.391799999999999676e-02 2.025339999999999918e-01 5.224459999999999660e-01 -5.321010000000000462e-01 -3.030899999999999914e-02 2.041709999999999914e-01 5.525149999999999784e-01 -3.934369999999999812e-01 5.202699999999999686e-02 3.389269999999999783e-01 -1.570799999999999974e-02 9.470699999999999952e-02 -1.826160000000000005e-01 -3.433019999999999960e-01 -2.959390000000000076e-01 -8.999000000000000055e-03 3.718629999999999991e-01 -4.971369999999999956e-01 2.049700000000000133e-02 -2.257949999999999957e-01 1.217097000000000095e+00 -1.762000000000000025e-02 -4.199379999999999780e-01 -4.749950000000000006e-01 -2.414380000000000137e-01 -5.455900000000000333e-02 -9.341169999999999751e-01 1.291329999999999978e-01 -7.701040000000000108e-01 -8.851329999999999476e-01 -5.108599999999999947e-02 1.401169999999999916e-01
-5.524099999999999844e-02 -2.283090000000000119e-01 -1.664839999999999931e-01 7.183599999999999708e-02 1.057099999999999984e-01 3.741090000000000249e-01 -6.251309999999999922e-01 1.689819999999999933e-01 4.356600000000000056e-02 -7.265999999999999889e-03 2.065699999999999828e-02 1.534999999999999976e-01 8.626300000000000634e-02 -4.841499999999999970e-02 -1.082510000000000000e-01 -1.530100000000000071e-01 1.959780000000000133e-01 -3.775149999999999895e-01 -3.696570000000000134e-01 2.388609999999999900e-01 -1.787900000000000045e-01 -1.788760000000000072e-01 9.617999999999999813e-03 3.801999999999999824e-03 5.523200000000000331e-02 -2.184799999999999937e-02 -2.229079999999999950e-01 -6.508899999999999408e-02 1.762259999999999938e-01 1.597330000000000139e-01 -1.156419999999999948e-01 3.258599999999999691e-02 5.913500000000000006e-02 3.862600000000000061e-02 -5.803699999999999831e-02 6.500400000000000622e-02 -3.816539999999999933e-01 6.459900000000000364e-02 1.170350000000000001e-01 -3.843619999999999814e-01 -1.687200000000000158e-02 1.511200000000000043e-01 -1.786599999999999994e-02 3.419999999999999863e-03 1.946050000000000002e-01 -9.333199999999999830e-02 1.318350000000000077e-01 -9.119599999999999929e-02 2.457449999999999912e-01 -2.271000000000000102e-02 3.032500000000000195e-01 7.727900000000000047e-02 2.736939999999999928e-01 -1.154150000000000037e-01 2.168700000000000142e-02 -1.242000000000000048e-02 -9.970999999999999308e-02 -2.411040000000000127e-01 -1.337939999999999963e-01 -2.909249999999999892e-01 5.710060000000000136e-01 -6.381790000000000518e-01 -2.059850000000000014e-01 9.563180000000000014e-01 6.553499999999999881e-01 -5.905599999999999739e-02 3.727730000000000210e-01 -8.869699999999999807e-02 5.702930000000000499e-01 2.009740000000000137e-01 2.717439999999999856e-01 6.502860000000000307e-01 -7.720799999999999885e-02 -1.814469999999999972e-01 2.893780000000000241e-01 -8.626999999999999252e-03 1.530819999999999959e-01 2.160440000000000138e-01 -5.216000000000000150e-03 -1.261980000000000046e-01 -4.518999999999999580e-03 6.542000000000000592e-02 -1.151869999999999977e-01 3.045860000000000234e-01 -4.456550000000000233e-01 -2.149349999999999872e-01 -5.286269999999999580e-01 -2.523000000000000242e-01 -1.366090000000000082e-01 -4.366300000000000042e-02 -4.393980000000000108e-01 -3.886220000000000230e-01 -1.766389999999999905e-01 2.859320000000000195e-01 7.140799999999999925e-02 -4.297099999999999809e-01 1.499590000000000090e-01 4.387110000000000176e-01 -1.171829999999999955e-01 1.642569999999999864e-01 -1.949899999999999967e-01 2.220560000000000034e-01 3.931709999999999927e-01 1.108220000000000038e-01 5.906999999999999924e-03 -1.294389999999999985e-01 -1.129679999999999990e-01 -3.010720000000000063e-01 3.603709999999999969e-01 -6.058789999999999454e-01 -3.481239999999999890e-01 2.450189999999999868e-01 1.539619999999999878e-01 -3.640180000000000082e-01 1.539139999999999953e-01 2.227429999999999966e-01 1.349299999999999944e-01 -3.972600000000000020e-01 -1.941049999999999998e-01 -5.553899999999999809e-02 4.184039999999999981e-01 6.383769999999999722e-01 2.963660000000000183e-01 1.425079999999999958e-01 2.995610000000000217e-01 -1.862910000000000121e-01 -1.283112000000000030e+00 -4.650909999999999767e-01 7.358940000000000481e-01 2.297150000000000025e-01 2.537000000000000019e-02 2.936860000000000026e-01 6.033690000000000442e-01 -2.855300000000000060e-01 -3.311270000000000047e-01 -3.942530000000000201e-01 -3.441839999999999899e-01 -1.479379999999999862e-01 1.165940000000000032e-01 -3.054799999999999738e-01 -3.694790000000000019e-01 -3.631190000000000251e-01 1.336680000000000090e-01 -4.080409999999999870e-01 -1.258479999999999877e-01 2.321300000000000030e-01 -4.534099999999999936e-02 5.832969999999999544e-01 1.114109999999999961e-01 4.292610000000000037e-01
9.857100000000000584e-02 -7.618700000000000472e-02 -2.168940000000000035e-01 -1.140399999999999921e-02 -3.678529999999999855e-01 -1.249030000000000001e-01 3.932439999999999825e-01 -1.900479999999999947e-01 -1.633769999999999945e-01 -6.798200000000000076e-02 1.406830000000000025e-01 -1.221170000000000033e-01 4.444000000000000034e-02 1.548489999999999867e-01 6.584199999999999775e-02 -2.594000000000000125e-02 1.828639999999999988e-01 -3.882000000000000034e-02 4.013459999999999805e-01 1.058899999999999980e-01 -1.657980000000000009e-01 1.314809999999999868e-01 -1.014400000000000024e-02 -1.578150000000000108e-01 -1.842390000000000139e-01 -1.034459999999999963e-01 -9.300500000000000433e-02 8.108500000000000429e-02 -1.553539999999999921e-01 1.017470000000000041e-01 -2.215209999999999957e-01 9.723999999999999311e-02 -1.006950000000000067e-01 1.433349999999999902e-01 -8.871000000000000413e-03 -5.406400000000000095e-02 -2.941599999999999770e-01 -6.700599999999999612e-02 -1.393359999999999876e-01 -2.557780000000000054e-01 4.424100000000000255e-02 3.962499999999999911e-01 1.440199999999999987e-02 1.438190000000000024e-01 -4.330099999999999921e-02 8.316400000000000181e-02 1.253430000000000100e-01 -5.187100000000000044e-02 4.528900000000000287e-02 -1.228449999999999959e-01 -2.854000000000000200e-03 4.714499999999999941e-02 8.506900000000000572e-02 -1.751099999999999879e-02 9.957999999999999838e-03 -7.570999999999999605e-03 2.490130000000000121e-01 -2.611720000000000153e-01 -1.926730000000000109e-01 -9.949700000000000211e-02 -2.502400000000000180e-01 5.032560000000000366e-01 -4.472289999999999877e-01 4.029019999999999824e-01 -3.396989999999999732e-01 6.439000000000000279e-02 -5.706369999999999498e-01 6.620500000000000274e-01 -5.430289999999999839e-01 -8.923100000000000476e-02 -1.421979999999999911e-01 -3.716309999999999891e-01 1.591140000000000054e-01 -6.052180000000000337e-01 2.643409999999999926e-01 2.745839999999999947e-01 2.519469999999999765e-01 1.670069999999999888e-01 1.562510000000000010e-01 3.648900000000000060e-02 -2.117899999999999991e-02 8.413099999999999745e-02 2.147070000000000090e-01 -2.370230000000000115e-01 -3.957399999999999807e-02 -3.570119999999999960e-01 1.564059999999999895e-01 1.637599999999999889e-01 -2.030109999999999970e-01 -2.317629999999999968e-01 6.140510000000000135e-01 3.326569999999999805e-01 3.315660000000000274e-01 -4.692819999999999769e-01 6.716500000000000248e-02 -3.223999999999999783e-02 2.067209999999999881e-01 5.460000000000000443e-04 -3.656690000000000218e-01 -1.665709999999999968e-01 -3.288559999999999817e-01 3.391250000000000098e-01 5.288319999999999688e-01 -7.672199999999999853e-02 -2.762799999999999978e-02 -1.827040000000000053e-01 2.133099999999999927e-02 1.590610000000000079e-01 4.150559999999999805e-01 -3.754219999999999779e-01 -4.391199999999999964e-02 -4.544600000000000029e-02 7.493950000000000333e-01 7.762800000000000256e-02 -4.307000000000000065e-03 7.111599999999999866e-02 5.172600000000000114e-02 3.517800000000000094e-02 -2.971880000000000077e-01 -1.568189999999999862e-01 -2.431119999999999948e-01 1.265340000000000076e-01 3.957289999999999974e-01 -3.771900000000000253e-01 -4.360310000000000019e-01 5.878700000000000037e-01 -3.561329999999999774e-01 2.705929999999999724e-01 4.068299999999999694e-02 2.397479999999999889e-01 1.089930000000000065e-01 -5.625900000000000345e-02 -4.303359999999999963e-01 3.347200000000000175e-01 3.747360000000000135e-01 5.364100000000000118e-02 -3.858849999999999780e-01 -1.945799999999999960e-02 -3.152300000000000241e-02 -4.847200000000000120e-02 4.798479999999999968e-01 -6.447829999999999950e-01 3.441899999999999821e-02 -3.402830000000000021e-01 -1.326440000000000119e-01 -2.993089999999999917e-01 3.528160000000000185e-01 5.284809999999999786e-01 3.311049999999999827e-01 -1.698050000000000115e-01
-1.304839999999999889e-01 -1.837449999999999917e-01 -2.487499999999999989e-01 -3.122300000000000075e-02 5.310829999999999718e-01 -5.778000000000000150e-03 -4.880559999999999898e-01 5.728899999999999965e-02 2.332650000000000001e-01 9.292200000000000459e-02 -4.221480000000000232e-01 -3.781430000000000069e-01 2.953400000000000122e-02 2.419400000000000023e-02 -5.014600000000000307e-02 4.229800000000000226e-01 -4.114880000000000204e-01 8.379699999999999649e-02 -3.722079999999999833e-01 -1.460720000000000074e-01 1.166429999999999967e-01 -1.580660000000000120e-01 -1.474920000000000120e-01 -1.992800000000000127e-01 1.207239999999999980e-01 -1.450329999999999953e-01 -8.900800000000000378e-02 -6.449100000000000665e-02 -4.966600000000000181e-02 -4.438799999999999690e-02 4.849900000000000044e-02 2.824169999999999736e-01 -3.883320000000000105e-01 -5.104199999999999710e-02 -1.878399999999999861e-02 -1.247099999999999945e-02 -9.190000000000000035e-04 -9.316699999999999982e-02 5.544600000000000223e-02 4.671020000000000172e-01 -1.363260000000000027e-01 3.331149999999999944e-01 -2.256199999999999872e-02 3.249529999999999919e-01 -9.478399999999999326e-02 2.322049999999999947e-01 -3.551200000000000190e-02 1.661519999999999941e-01 6.601300000000000223e-02 -2.872080000000000188e-01 -9.475100000000000189e-02 5.878799999999999998e-02 -4.082359999999999878e-01 -1.249100000000000037e-02 1.220330000000000026e-01 -2.283769999999999967e-01 1.386930000000000107e-01 -2.340100000000000166e-02 6.167299999999999865e-02 5.924999999999999711e-03 -2.308400000000000035e-02 6.242339999999999556e-01 -2.477899999999999894e-02 -1.126800000000000024e+00 -7.055639999999999690e-01 -4.092009999999999814e-01 -4.090799999999999992e-02 -4.711080000000000267e-01 1.793919999999999959e-01 -2.167030000000000067e-01 -7.046130000000000448e-01 4.411269999999999913e-01 -3.588080000000000158e-01 -4.542990000000000084e-01 7.830439999999999623e-01 -3.907769999999999855e-01 3.521949999999999803e-01 2.477199999999999958e-01 3.890629999999999922e-01 1.591579999999999939e-01 -2.455650000000000055e-01 -4.090289999999999759e-01 5.468650000000000455e-01 -1.729430000000000134e-01 5.197619999999999463e-01 4.239430000000000143e-01 -7.895599999999999841e-02 -3.142249999999999766e-01 3.098110000000000031e-01 1.034150000000000069e-01 1.509890000000000121e-01 1.985899999999999888e-01 2.089070000000000094e-01 -1.814330000000000109e-01 4.156859999999999999e-01 2.740799999999999903e-01 -2.355750000000000066e-01 -4.193490000000000273e-01 -2.623469999999999969e-01 1.736400000000000096e-02 4.684400000000000230e-01 -2.948529999999999762e-01 -4.586169999999999969e-01 1.583170000000000133e-01 -1.585439999999999905e-01 6.871099999999999430e-02 -1.158259999999999984e-01 1.256990000000000052e-01 1.782019999999999993e-01 6.777469999999999883e-01 -2.418000000000000010e-02 -3.219600000000000239e-02 1.101889999999999953e-01 6.197390000000000398e-01 -6.171900000000000303e-02 -3.339750000000000218e-01 -2.432499999999999940e-02 2.249690000000000023e-01 3.980460000000000109e-01 3.264469999999999872e-01 -9.774199999999999555e-02 1.368870000000000087e-01 -6.045540000000000358e-01 1.879440000000000000e-01 -8.155639999999999556e-01 1.217209999999999959e-01 9.376200000000000090e-01 2.947879999999999945e-01 -6.356499999999999651e-02 -1.626460000000000128e-01 2.683180000000000009e-01 1.838549999999999907e-01 5.086600000000000010e-01 3.061860000000000137e-01 -6.232330000000000370e-01 2.911819999999999964e-01 -5.416819999999999968e-01 1.287840000000000096e-01 -3.027909999999999768e-01 -2.489129999999999954e-01 -7.102810000000000512e-01 -1.115349999999999953e-01 2.982299999999999882e-02 -3.900120000000000253e-01 1.640210000000000001e-01 1.554030000000000133e-01 1.170762999999999998e+00 5.677560000000000384e-01 2.079080000000000095e-01 -3.420699999999999852e-01
9.529600000000000570e-02 -2.337999999999999801e-03 -6.067529999999999868e-01 -4.969599999999999712e-02 -1.780339999999999978e-01 7.205300000000000593e-02 1.663560000000000039e-01 -2.308800000000000019e-01 9.753799999999999970e-02 -7.080999999999999621e-03 -2.360230000000000106e-01 -1.255739999999999912e-01 -8.205500000000000294e-02 1.300860000000000072e-01 -1.164530000000000010e-01 4.211399999999999866e-02 3.543899999999999828e-02 -7.723599999999999910e-02 6.751699999999999369e-02 1.224599999999999994e-01 7.831699999999999773e-02 4.345789999999999931e-01 2.852080000000000171e-01 2.575600000000000112e-02 1.747799999999999909e-01 8.910400000000000265e-02 1.828199999999999964e-02 -1.638779999999999959e-01 -1.296899999999999963e-02 -2.510370000000000101e-01 1.242500000000000028e-02 -2.911119999999999819e-01 6.199999999999999782e-03 -1.064969999999999944e-01 1.558539999999999925e-01 8.772699999999999942e-02 4.317500000000000226e-01 -1.200600000000000001e-01 -1.766510000000000025e-01 2.298250000000000015e-01 -2.606299999999999936e-02 3.492469999999999741e-01 1.598390000000000088e-01 4.246739999999999959e-01 -2.285939999999999916e-01 1.284119999999999984e-01 -1.298930000000000085e-01 1.172220000000000067e-01 -1.037300000000000028e-01 -7.530100000000000682e-02 8.621800000000000297e-02 -1.791500000000000037e-02 4.617629999999999790e-01 -1.542169999999999930e-01 -1.518160000000000065e-01 8.246299999999999464e-02 -1.627170000000000005e-01 1.299700000000000022e-01 4.831699999999999884e-02 -2.339999999999999958e-04 1.061089999999999950e-01 -6.638209999999999944e-01 3.720310000000000006e-01 1.771909999999999874e-01 6.381320000000000325e-01 2.977670000000000039e-01 1.026149999999999979e-01 -3.162909999999999888e-01 2.053409999999999958e-01 9.392009999999999525e-01 8.259779999999999900e-01 -5.793110000000000204e-01 -1.434030000000000027e-01 -5.526649999999999618e-01 1.087579999999999936e-01 -8.583799999999999764e-02 6.885189999999999921e-01 1.046700000000000061e-02 3.879710000000000103e-01 2.741259999999999808e-01 1.074839999999999962e-01 -1.810970000000000080e-01 -5.142400000000000304e-01 -5.234170000000000211e-01 2.086850000000000094e-01 1.355369999999999908e-01 1.743300000000000127e-01 2.556800000000000045e-02 -3.180000000000000049e-01 6.769770000000000509e-01 -5.216129999999999933e-01 -1.840229999999999921e-01 -8.611599999999999810e-02 -3.405529999999999946e-01 6.092899999999999705e-02 1.712220000000000131e-01 -5.524500000000000244e-02 2.958540000000000059e-01 3.658799999999999830e-01 4.831200000000000078e-02 -3.898760000000000003e-01 -7.877999999999999586e-03 -2.799490000000000034e-01 1.076610000000000067e-01 -1.505309999999999981e-01 -2.611200000000000188e-01 2.569000000000000103e-03 -8.440100000000000380e-02 -4.651270000000000127e-01 5.907400000000000151e-02 1.040674000000000099e+00 3.157349999999999879e-01 -4.536459999999999937e-01 5.752329999999999943e-01 -1.856349999999999945e-01 -1.870519999999999960e-01 2.252409999999999968e-01 5.812999999999999591e-03 -3.247800000000000131e-01 -1.514610000000000123e-01 -1.064380000000000048e-01 -3.693690000000000029e-01 -3.971299999999999830e-02 -1.428039999999999865e-01 9.702159999999999673e-01 -3.538709999999999911e-01 2.948799999999999755e-01 -6.658269999999999467e-01 -5.561580000000000412e-01 -8.241650000000000365e-01 -1.075679999999999970e-01 -7.309539999999999926e-01 -3.285879999999999912e-01 6.668589999999999796e-01 -3.488829999999999987e-01 4.921010000000000106e-01 -3.147539999999999782e-01 4.079200000000000187e-02 6.327000000000000159e-03 -7.150000000000000105e-03 3.353709999999999747e-01 -6.760950000000000015e-01 -2.889000000000000075e-03 2.028999999999999901e-02 -5.154410000000000380e-01 1.965199999999999933e-02 2.695870000000000211e-01 6.124110000000000387e-01 9.414999999999999758e-02 -4.238419999999999965e-01