1.550059388408948990e+01 -7.899116069174717536e-01 1.116733522658149402e+00 -7.899116069174717536e-01 1.197682524410056715e+01 3.317518942413985594e-01 1.116733522658149402e+00 3.317518942413985594e-01 1.264004036564474376e+01
1.534200253206687137e+01 7.718501127776318249e-01 1.027524118352910021e+00 7.718501127776318249e-01 5.972451038385492517e+00 1.124787896259212383e+00 1.027524118352910021e+00 1.124787896259212383e+00 9.915233890119390381e+00
1.590707089448073752e+01 -1.133147917207048216e+00 -2.540619988278554509e+00 -1.133147917207048216e+00 7.130062063606450451e+00 -1.558858069900763976e-01 -2.540619988278554509e+00 -1.558858069900763976e-01 1.281673283275956265e+01
1.891490681311751842e+01 2.557079663915863832e-01 -1.610659635042667848e+00 2.557079663915863832e-01 1.265759810767601401e+01 1.875661544830562022e+00 -1.610659635042667848e+00 1.875661544830562022e+00 1.598679957089997572e+01
1.108758390961805063e+01 3.383346324691121065e-01 1.665212026305525617e-01 3.383346324691121065e-01 1.447269619675719277e+01 2.050474846776334292e+00 1.665212026305525617e-01 2.050474846776334292e+00 1.328081304774534210e+01
5.531515119713659168e+00 1.800200610994038053e+00 -2.819494891528293579e+00 1.800200610994038053e+00 1.172329643008874633e+01 -1.609006875315675211e+00 -2.819494891528293579e+00 -1.609006875315675211e+00 1.157435561003366864e+01
8.871963273271640915e+00 -5.080594721047255735e-01 -1.441608351597164273e+00 -5.080594721047255735e-01 1.070219090601806222e+01 1.892523090127516738e+00 -1.441608351597164273e+00 1.892523090127516738e+00 1.090490301856091016e+01
1.186497529558995012e+01 3.005973733875886733e+00 1.813688715204391899e+00 3.005973733875886733e+00 1.347362558233439067e+01 9.842863390566901627e-01 1.813688715204391899e+00 9.842863390566901627e-01 1.641102676794823978e+01
1.226007543251799348e+01 -1.776105411823464930e+00 3.488177704498070852e+00 -1.776105411823464930e+00 1.459468344893576486e+01 5.687700913914456313e-01 3.488177704498070852e+00 5.687700913914456313e-01 1.705825766528342058e+01
7.424785347799954138e+00 -1.835016107845857780e+00 1.913442952973285927e+00 -1.835016107845857780e+00 6.425448706982738400e+00 -3.800554953035716887e-01 1.913442952973285927e+00 -3.800554953035716887e-01 1.106985070336918753e+01
1.020394044969031455e+01 -1.652657844543643506e+00 -7.984470920828992124e-01 -1.652657844543643506e+00 1.184788168471488845e+01 4.819945455882845842e-01 -7.984470920828992124e-01 4.819945455882845842e-01 1.330323284664471828e+01
1.466949346712638658e+01 -2.482230024772885457e+00 -6.988456779873916114e-01 -2.482230024772885457e+00 8.969600620157333282e+00 5.810865474391710972e-01 -6.988456779873916114e-01 5.810865474391710972e-01 1.449996107211651797e+01
1.254726507562715909e+01 -3.951414559212200306e+00 2.101438711782638968e+00 -3.951414559212200306e+00 1.109110451424198729e+01 -2.579906992610935923e+00 2.101438711782638968e+00 -2.579906992610935923e+00 1.134342771927486915e+01
1.065201379992289255e+01 -1.059351063369619733e-01 2.156421273385398685e+00 -1.059351063369619733e-01 9.188200734596305708e+00 2.542001061475082757e+00 2.156421273385398685e+00 2.542001061475082757e+00 1.318035129297003216e+01
9.432667670789919967e+00 -1.195601858397582484e+00 -4.661388064676533993e+00 -1.195601858397582484e+00 4.360546173411528059e+00 2.005250359726092224e+00 -4.661388064676533993e+00 2.005250359726092224e+00 1.129017715930382160e+01
7.532554338217551937e+00 3.031500947467449691e+00 -2.172071549567365700e+00 3.031500947467449691e+00 5.575013265268241369e+00 -1.615216044564000253e+00 -2.172071549567365700e+00 -1.615216044564000253e+00 1.185077967437317881e+01
7.295683304604839492e+00 4.849830974233944603e-01 9.189513886160216583e-01 4.849830974233944603e-01 9.684815411605210755e+00 -1.824188267579635703e+00 9.189513886160216583e-01 -1.824188267579635703e+00 8.810697960651888039e+00
4.348031612602005325e+00 -8.632839505510493672e-02 -1.064315002686648803e+00 -8.632839505510493672e-02 9.401984073255583496e+00 -1.272534427607455720e+00 -1.064315002686648803e+00 -1.272534427607455720e+00 1.177158305074276790e+01
6.815952813437093027e+00 -1.445428943431821822e-01 8.304834621335085432e-01 -1.445428943431821822e-01 1.040415078209847088e+01 7.008380458774647881e-01 8.304834621335085432e-01 7.008380458774647881e-01 1.165602571311851854e+01
6.953788446559431513e+00 3.063492036429648624e-01 -9.804034857254679824e-01 3.063492036429648624e-01 8.691201168335906502e+00 -4.866867983748490722e+00 -9.804034857254679824e-01 -4.866867983748490722e+00 1.085340710076578041e+01
7.009801152923536449e+00 -8.672743464672471037e-01 -2.153285558012953682e-01 -8.672743464672471037e-01 8.041468490866029439e-01 -3.414386510796693308e+00 -2.153285558012953682e-01 -3.414386510796693308e+00 6.777412947063488957e+00
2.879531954624903634e+00 1.412752978007410620e+00 7.552998749635007059e-01 1.412752978007410620e+00 1.635694416797764283e+00 1.423388373647886729e+00 7.552998749635007059e-01 1.423388373647886729e+00 1.161814808266292154e+01
6.103347344708882183e+00 2.972680813621878748e+00 1.488525219326758409e+00 2.972680813621878748e+00 2.300981148136735044e+00 -2.030964357807349963e+00 1.488525219326758409e+00 -2.030964357807349963e+00 1.030901521534747367e+01
3.636394027138575513e+00 -1.226364697836639150e+00 -6.782427827604979864e-01 -1.226364697836639150e+00 1.429008888746871930e+00 -4.443942617992036603e-01 -6.782427827604979864e-01 -4.443942617992036603e-01 1.005001870991005575e+01
2.243191159052508432e+00 1.175864963986544387e+00 -9.833807172884750925e-01 1.175864963986544387e+00 3.886266393261226249e+00 5.333546201181837282e-02 -9.833807172884750925e-01 5.333546201181837282e-02 7.447969265066261002e+00
6.500711536057465878e+00 -7.292632491273164375e-01 -1.286996075218640456e+00 -7.292632491273164375e-01 -2.305882825957198956e-01 1.861539505382457715e+00 -1.286996075218640456e+00 1.861539505382457715e+00 9.609043170285865187e+00
4.293286776713402197e+00 2.797210935894150818e+00 -3.339536871653715489e-01 2.797210935894150818e+00 5.741025055654173315e+00 4.547121238071993865e+00 -3.339536871653715489e-01 4.547121238071993865e+00 9.942566687111334289e+00
1.088437370510268565e+01 2.099865193960365417e+00 2.111060943069924811e-01 2.099865193960365417e+00 6.081063389074739867e+00 -1.675994585483336685e+00 2.111060943069924811e-01 -1.675994585483336685e+00 1.292599043895866373e+01
7.616788482933658067e+00 2.389030224551448589e-01 -6.324239814248648894e-01 2.389030224551448589e-01 1.040373193203067181e+01 1.114169481026890285e+00 -6.324239814248648894e-01 1.114169481026890285e+00 1.419340810357570426e+01
4.528278645157067572e+00 -5.363205314090881970e-01 -2.813444206089406485e+00 -5.363205314090881970e-01 6.633266262243900258e+00 2.733958915520376731e+00 -2.813444206089406485e+00 2.733958915520376731e+00 6.403391156790649852e+00
5.311981082826215506e+00 -9.938066878950516103e-02 -7.699652874725341212e-01 -9.938066878950516103e-02 2.259045200132324460e+00 -1.077350296012894892e+00 -7.699652874725341212e-01 -1.077350296012894892e+00 6.814017046907532738e+00
5.852229748654936614e+00 2.294573874126613067e+00 -1.679147281263935199e+00 2.294573874126613067e+00 6.761440043126594190e+00 3.120885815990280809e-01 -1.679147281263935199e+00 3.120885815990280809e-01 1.089642413475599625e+01
9.838878654786755718e+00 -2.173775250518820701e-01 -3.643655981692450196e-01 -2.173775250518820701e-01 7.478630222056392718e+00 8.181670060857830773e-01 -3.643655981692450196e-01 8.181670060857830773e-01 1.325582920721470970e+01
9.471071693898291954e+00 2.465176034850184994e+00 -2.474583180967519169e+00 2.465176034850184994e+00 3.423340846029920836e+00 -6.252299485036061366e-01 -2.474583180967519169e+00 -6.252299485036061366e-01 7.525948959445632802e+00
9.918256402770809776e-01 9.987989278923372627e-01 2.782868151140044155e+00 9.987989278923372627e-01 7.909881647944374983e+00 -3.133049448364619849e+00 2.782868151140044155e+00 -3.133049448364619849e+00 8.582305810844090388e+00
7.366282181573257759e+00 2.397344964410873747e+00 9.707982348463364275e-01 2.397344964410873747e+00 -4.768664623257665852e-02 3.929707937455294342e+00 9.707982348463364275e-01 3.929707937455294342e+00 7.584231380366325936e+00
6.700621881254898327e+00 6.442140448198153679e-01 5.595242591515746433e+00 6.442140448198153679e-01 3.561448165682724376e+00 1.617966870684953706e+00 5.595242591515746433e+00 1.617966870684953706e+00 7.368699059667181750e+00
6.435999200582444679e+00 1.691531658944276928e-01 5.482430419876401118e+00 1.691531658944276928e-01 9.095782033149953705e+00 -4.933040634324758145e+00 5.482430419876401118e+00 -4.933040634324758145e+00 1.496878448111332283e+01
8.366201816403760816e+00 -8.527787380397541250e-01 1.775652600939357395e+00 -8.527787380397541250e-01 6.824861867581907937e+00 1.162784389571887456e+00 1.775652600939357395e+00 1.162784389571887456e+00 1.501563908734635255e+01
7.774145925297084148e+00 1.292775074127063273e-01 2.134584468499312049e+00 1.292775074127063273e-01 6.717596629272880371e+00 -1.857515148649951708e+00 2.134584468499312049e+00 -1.857515148649951708e+00 9.353040876819607163e+00
4.599058646479129209e+00 -1.546971784192940624e-01 3.070284199691261651e-01 -1.546971784192940624e-01 5.638638854621404128e+00 -4.169143012699265682e-01 3.070284199691261651e-01 -4.169143012699265682e-01 1.388755699190525839e+01
9.631406367824727255e+00 2.213509405599258240e-01 -4.024356732505875167e-03 2.213509405599258240e-01 5.238631379736842675e+00 1.894453196521025395e+00 -4.024356732505875167e-03 1.894453196521025395e+00 8.297216078209975976e+00
9.288928515766029292e+00 1.303897241467955048e+00 1.025135540939242862e+00 1.303897241467955048e+00 7.756424039320325647e+00 3.320235807718630722e-02 1.025135540939242862e+00 3.320235807718630722e-02 1.426692761074661675e+01
1.360828587913192500e+01 3.363366044429874968e+00 -5.041992593177086590e+00 3.363366044429874968e+00 9.838635268936547718e+00 2.407363405221753183e+00 -5.041992593177086590e+00 2.407363405221753183e+00 1.215504594794924742e+01
3.313234219423117910e+00 -1.016464212508583209e+00 -1.508567761084568692e+00 -1.016464212508583209e+00 7.062117790446112764e+00 -1.344452116275837827e+00 -1.508567761084568692e+00 -1.344452116275837827e+00 1.351101644108957167e+01
5.775965075499121859e+00 1.905230095562784998e+00 -2.675450089157629385e+00 1.905230095562784998e+00 1.473615288940306911e+01 -1.643409182235746835e+00 -2.675450089157629385e+00 -1.643409182235746835e+00 7.586161486759833927e+00
1.295888148955302466e+00 -1.546496332764627724e+00 8.921166835965979036e-01 -1.546496332764627724e+00 8.966810173084020619e+00 2.189804755816227910e+00 8.921166835965979036e-01 2.189804755816227910e+00 1.193877214942737730e+01
6.424390261541137015e+00 2.569548943636975391e+00 5.002869732790194313e+00 2.569548943636975391e+00 1.528290505155478485e+01 2.779636213454726446e-01 5.002869732790194313e+00 2.779636213454726446e-01 1.235272053940639836e+01
7.333691118189617164e+00 -4.555220892761467910e-01 1.141655101692218732e+00 -4.555220892761467910e-01 8.145360288088456358e+00 6.560097683508171740e-02 1.141655101692218732e+00 6.560097683508171740e-02 1.172969804396281823e+01
3.866269132591826363e+00 2.788296221613283388e-01 3.366988531502735915e-01 2.788296221613283388e-01 -1.626134447007043571e+00 1.363906003884308493e+00 3.366988531502735915e-01 1.363906003884308493e+00 6.355155477361091876e+00
-2.229131381100968756e+00 2.591719696550091712e+00 2.744860337555266039e+00 2.591719696550091712e+00 1.540756954808564450e+00 2.682513938949707466e+00 2.744860337555266039e+00 2.682513938949707466e+00 4.713551878525723993e+00
4.644752924821633933e+00 -1.554103555617634580e+00 1.612838787422435693e+00 -1.554103555617634580e+00 1.198585882123851221e+01 -3.059411078336629064e+00 1.612838787422435693e+00 -3.059411078336629064e+00 1.179355003875803298e+01
4.659016467671021289e+00 2.510677868566942639e+00 -1.392959482235859081e+00 2.510677868566942639e+00 7.723448086685192671e+00 -1.010713514280417336e+00 -1.392959482235859081e+00 -1.010713514280417336e+00 1.057590761057651640e+01
2.609662327832853457e+00 -1.222481844505416859e+00 8.436149777726276167e-01 -1.222481844505416859e+00 6.125552058438306524e+00 -1.504583025304422339e+00 8.436149777726276167e-01 -1.504583025304422339e+00 1.018347905786470520e+01
-1.403792982638132569e+00 1.341893734780629899e+00 1.212265298932740487e+00 1.341893734780629899e+00 8.141918925369239446e+00 -2.886839190267189270e+00 1.212265298932740487e+00 -2.886839190267189270e+00 5.483143597018870885e+00
-3.480310115386702208e+00 1.924287773647661570e+00 1.911031735015412958e-01 1.924287773647661570e+00 1.037762172442581843e+01 6.885498905099961542e-01 1.911031735015412958e-01 6.885498905099961542e-01 6.219838604781601887e+00
4.857783465386082966e+00 4.022036076724824771e-01 4.438605109695618722e+00 4.022036076724824771e-01 6.841095137777164048e+00 -1.000129059864403258e+00 4.438605109695618722e+00 -1.000129059864403258e+00 1.214305777979249967e+01
1.003299868080366331e+01 2.784583172363601200e+00 1.297178659975009252e+00 2.784583172363601200e+00 4.582321624175304642e+00 -1.291609086100486303e+00 1.297178659975009252e+00 -1.291609086100486303e+00 1.123271545811057415e+01
8.399523037338026299e+00 -2.852968936135944489e+00 -6.981891022054356188e-01 -2.852968936135944489e+00 1.089632225230707263e+01 -1.516203284617832381e+00 -6.981891022054356188e-01 -1.516203284617832381e+00 9.994787102321037509e+00
4.012979859042673070e+00 1.035052099301198236e+00 4.036384521614982290e+00 1.035052099301198236e+00 4.084308893561715337e+00 -3.474536776614330691e+00 4.036384521614982290e+00 -3.474536776614330691e+00 1.371101168832777439e+01
7.779296649103807582e+00 2.917120918141881680e-01 -4.598045482125939110e+00 2.917120918141881680e-01 6.970157560019919707e+00 -1.774016821620518991e+00 -4.598045482125939110e+00 -1.774016821620518991e+00 9.270261387068696735e+00
5.486658541506755249e+00 -9.984649798653079111e-01 2.012585896048634471e+00 -9.984649798653079111e-01 -2.283072477670281264e-01 -5.004522492517187171e-01 2.012585896048634471e+00 -5.004522492517187171e-01 1.160989560430006229e+01
4.692841440713856116e+00 2.719112378657700280e+00 -5.046350897936622282e-01 2.719112378657700280e+00 7.691604161260328532e+00 -1.013294536319830241e+00 -5.046350897936622282e-01 -1.013294536319830241e+00 7.652220934615075798e+00
6.505007579320436051e+00 -2.220601556071593041e+00 1.836176435736383450e+00 -2.220601556071593041e+00 8.569536543912258608e+00 1.044549807595354096e+00 1.836176435736383450e+00 1.044549807595354096e+00 1.360396719532474918e+01
5.766535288837581597e+00 1.292175099705620722e+00 6.994456524088341620e-01 1.292175099705620722e+00 8.851971672738292440e+00 -7.736556961780105546e-01 6.994456524088341620e-01 -7.736556961780105546e-01 1.731157705426134186e+01
6.208869261114095650e+00 2.189606651054430753e+00 -4.683338072283648401e+00 2.189606651054430753e+00 9.377402102384595040e+00 2.519824648425915026e+00 -4.683338072283648401e+00 2.519824648425915026e+00 8.369388473000668682e+00
1.267990470385436375e+01 2.223782552532448609e+00 -3.564674443231990342e+00 2.223782552532448609e+00 7.187416222214722872e+00 1.141213611080214019e+00 -3.564674443231990342e+00 1.141213611080214019e+00 1.366597398576722711e+01
8.393398770130470865e+00 2.551193122422465986e-01 2.045771273717666983e+00 2.551193122422465986e-01 1.446030049880474699e+01 -2.341745447978517358e+00 2.045771273717666983e+00 -2.341745447978517358e+00 1.047387233797893025e+01
1.148173314368947118e+01 1.147275616791203934e+00 2.501666931973202113e-01 1.147275616791203934e+00 -1.290539320386782318e+00 -2.873928419934072664e+00 2.501666931973202113e-01 -2.873928419934072664e+00 5.243023645312686831e+00
1.939094689557978590e+00 -5.783923226787311966e-01 6.335786491793391484e-01 -5.783923226787311966e-01 1.089134133258188974e+01 -2.562343590443614261e-01 6.335786491793391484e-01 -2.562343590443614261e-01 3.269702113052228132e+00
8.295048246102311396e+00 -4.783324375630647607e-01 -5.616869971367933090e+00 -4.783324375630647607e-01 1.977620405591454400e+01 4.706012577305334510e+00 -5.616869971367933090e+00 4.706012577305334510e+00 1.283403020853247156e+01
1.113439889489872137e+01 4.233894969126645313e-01 -2.690307946292408658e+00 4.233894969126645313e-01 1.551228206503551554e+01 1.227723130488961978e+00 -2.690307946292408658e+00 1.227723130488961978e+00 1.336622450076012925e+01
9.113283173820709848e+00 2.035984898484892280e+00 -3.837753367165152696e+00 2.035984898484892280e+00 1.621633506819014414e+01 -4.576333200232982623e-01 -3.837753367165152696e+00 -4.576333200232982623e-01 1.569431770058280584e+01
1.028505019930608100e+01 -2.262299778361847036e-01 -3.042034460659001738e+00 -2.262299778361847036e-01 6.409685228079744945e+00 -2.768508385977782815e+00 -3.042034460659001738e+00 -2.768508385977782815e+00 1.165776337488628123e+01
7.646934367543119393e+00 -5.372997349459707195e-01 -2.270693760125991112e+00 -5.372997349459707195e-01 9.551507887323948509e+00 -2.316376718196391682e+00 -2.270693760125991112e+00 -2.316376718196391682e+00 8.320467917108897993e+00
8.414924267533734792e+00 3.461122254172644741e+00 1.742501184086633348e+00 3.461122254172644741e+00 9.557230284871856441e+00 8.911420081685562877e+00 1.742501184086633348e+00 8.911420081685562877e+00 1.198734177688396407e+01
5.660549241276158661e+00 -5.916823221272878852e-01 7.677691546846124870e-01 -5.916823221272878852e-01 1.905999874065767941e+01 8.868867178851556066e-01 7.677691546846124870e-01 8.868867178851556066e-01 1.422056543635005532e+01
1.016055550685676145e+01 2.039635686238009615e+00 -3.224647430083526611e+00 2.039635686238009615e+00 1.552771159591148198e+01 -3.250751977552326810e+00 -3.224647430083526611e+00 -3.250751977552326810e+00 1.224342897239099059e+01
1.710011437138311408e+01 -1.109013097084115662e+00 -9.898332723870076899e-01 -1.109013097084115662e+00 1.019644076942228317e+01 3.951737186967126392e-01 -9.898332723870076899e-01 3.951737186967126392e-01 1.209905588212934902e+01
4.718232811040187213e-01 2.947034737173237051e+00 -2.601975863075127737e+00 2.947034737173237051e+00 7.300369897255351681e+00 -4.826992325266769690e+00 -2.601975863075127737e+00 -4.826992325266769690e+00 8.340035007438396875e+00
-1.487993166537932010e-01 -2.741639720142051484e+00 -2.332202458595950656e+00 -2.741639720142051484e+00 6.017998153190660560e+00 -4.322079888806591025e-02 -2.332202458595950656e+00 -4.322079888806591025e-02 5.239378517695620019e+00
9.668140650797949931e+00 2.184970999628379928e+00 -3.483445830759146933e+00 2.184970999628379928e+00 1.163552470034054842e+01 7.634108499250772395e-01 -3.483445830759146933e+00 7.634108499250772395e-01 1.252929414366414029e+01
1.060006507124365349e+01 -1.153773452978147152e+00 -4.607175281576758152e+00 -1.153773452978147152e+00 2.189241572279119197e+01 -2.956107935263542430e+00 -4.607175281576758152e+00 -2.956107935263542430e+00 1.959640417410753699e+01
1.052478526176077445e+01 -5.751547248573622984e-01 1.332294144037549755e+00 -5.751547248573622984e-01 6.024348825840268873e+00 -6.120871125923844913e-02 1.332294144037549755e+00 -6.120871125923844913e-02 9.745265664633569358e+00
3.425418115960763732e+00 3.853194218313220620e+00 -6.523504903936228949e+00 3.853194218313220620e+00 1.146444708818866332e+01 -5.906521773659432206e-01 -6.523504903936228949e+00 -5.906521773659432206e-01 1.192424824031962771e+01
2.497365228574180751e+00 -7.754952403946976380e-01 2.495095514017591665e+00 -7.754952403946976380e-01 1.516199322522596482e+01 1.329339553018748232e-01 2.495095514017591665e+00 1.329339553018748232e-01 1.067541846249520354e+01
1.090637465393426098e+01 2.446214579078181295e+00 -1.742920034154432640e+00 2.446214579078181295e+00 5.761543048840295889e+00 4.608188445929948251e+00 -1.742920034154432640e+00 4.608188445929948251e+00 1.156539561466439281e+01
1.234931879763954043e+01 -1.542341792902941044e+00 -7.841377021314953844e+00 -1.542341792902941044e+00 1.235396010920164400e+01 5.349473824030321012e+00 -7.841377021314953844e+00 5.349473824030321012e+00 1.489267829176694846e+01
7.339158809615216050e+00 2.529611023658689728e+00 -1.330301776147476689e-01 2.529611023658689728e+00 1.159657730417124810e+01 2.066476051393484337e+00 -1.330301776147476689e-01 2.066476051393484337e+00 1.060145180457623404e+01
6.662149936513911186e+00 -5.687417907111890214e-01 9.265642716050799255e-01 -5.687417907111890214e-01 6.594092460632545283e+00 3.388253662647636943e+00 9.265642716050799255e-01 3.388253662647636943e+00 8.595992019816241836e+00
1.107812016214020367e+01 1.429054169835282773e+00 -2.358420208785777739e+00 1.429054169835282773e+00 1.136298348933226521e+01 8.395243974483209470e+00 -2.358420208785777739e+00 8.395243974483209470e+00 1.235651283056080096e+01
5.633635294352015599e+00 1.819977126357435582e+00 -8.121253768645781079e+00 1.819977126357435582e+00 1.586139359654638881e+01 -1.676090807796209337e+00 -8.121253768645781079e+00 -1.676090807796209337e+00 1.516390069107526806e+01
1.782417595547924449e+01 -4.377322816667713057e-01 5.217796418931843760e-01 -4.377322816667713057e-01 1.030003823957004272e+01 1.591268008930762035e+00 5.217796418931843760e-01 1.591268008930762035e+00 2.039073068714505865e+01
6.780899590871116711e-01 1.514341099856940209e+00 4.150260798831980402e+00 1.514341099856940209e+00 1.743118704929835161e+01 9.393058038702612578e+00 4.150260798831980402e+00 9.393058038702612578e+00 8.411641388623953830e+00
2.751290252109593659e+00 -2.594459202398942566e+00 -3.474055665049966546e+00 -2.594459202398942566e+00 9.125752453541821296e+00 4.074596100097608087e+00 -3.474055665049966546e+00 4.074596100097608087e+00 1.167556450276775948e+01
6.595530135189586751e+00 2.966913134985558642e+00 1.859315071914279249e+00 2.966913134985558642e+00 1.638209215245376527e+01 2.288353384606185426e+00 1.859315071914279249e+00 2.288353384606185426e+00 1.081478799248745659e+01
2.956922994854935816e+00 4.134106770541443598e-01 1.180121386297155572e+00 4.134106770541443598e-01 8.677786645894219220e+00 6.914025990798736698e-01 1.180121386297155572e+00 6.914025990798736698e-01 1.076216570761810765e+01
1.734927922049934512e+00 7.635693337345148546e-01 -6.449668429146441229e-01 7.635693337345148546e-01 1.330256495059065891e+01 -1.771701825975519062e+00 -6.449668429146441229e-01 -1.771701825975519062e+00 6.624821339255293928e+00
4.317110289353511376e+00 -1.400311998966555782e+00 -6.115505316947170478e+00 -1.400311998966555782e+00 1.313825686115618119e+01 3.521425343663667995e+00 -6.115505316947170478e+00 3.521425343663667995e+00 9.246494475789100775e+00
4.725274020288058985e+00 5.823261172344155412e+00 2.235906563954428439e+00 5.823261172344155412e+00 1.568895755174218110e+01 -2.974435455797795669e+00 2.235906563954428439e+00 -2.974435455797795669e+00 8.129087396940841259e+00
2.183380501397952145e+01 1.262651830061808367e+00 2.404771062910237234e+00 1.262651830061808367e+00 4.857608001168491896e+00 4.042933299026388205e+00 2.404771062910237234e+00 4.042933299026388205e+00 1.387884604252223930e+01
1.290970622753894581e+01 -4.493808416604380684e-01 -7.163224800731278208e+00 -4.493808416604380684e-01 8.329235467852431185e+00 7.448484337446932280e+00 -7.163224800731278208e+00 7.448484337446932280e+00 1.452286198258025607e+01
1.347543682587082081e+01 5.953897112409185094e-02 -3.562897160511868222e+00 5.953897112409185094e-02 1.132631146785560539e+01 -1.598671466885920545e+00 -3.562897160511868222e+00 -1.598671466885920545e+00 1.270757144887333467e+01
1.913616719150062195e+01 3.472516108044001015e+00 5.858784186202393940e+00 3.472516108044001015e+00 7.938437034323407637e+00 1.295842867866891845e+00 5.858784186202393940e+00 1.295842867866891845e+00 1.537287857422695581e+01
1.684894583410470403e+01 -1.436740634593008270e+00 -5.072036595337622522e+00 -1.436740634593008270e+00 1.264953241380284865e+01 8.590558289206951414e+00 -5.072036595337622522e+00 8.590558289206951414e+00 2.082705359493504460e+01
1.006264081330455262e+01 1.949605562205325215e+00 -4.190651529694374489e+00 1.949605562205325215e+00 1.117996865024809594e+01 3.365228229190767806e+00 -4.190651529694374489e+00 3.365228229190767806e+00 1.152013716679784316e+01
1.391195217828655295e+01 -2.844574954371800413e+00 5.673720377867635944e-02 -2.844574954371800413e+00 7.613630127017009031e+00 -1.035697354811051518e+00 5.673720377867635944e-02 -1.035697354811051518e+00 6.619478170822825192e+00
1.112839349054824467e+01 3.721743218656798025e+00 -2.149119697879164459e+00 3.721743218656798025e+00 1.161011634960606465e+01 -4.752646438232360770e-01 -2.149119697879164459e+00 -4.752646438232360770e-01 1.328714107985074477e+01
1.201389347510082040e+01 -1.106262270963162209e+00 2.130741236120448967e+00 -1.106262270963162209e+00 9.829850737784861181e+00 -2.662975149300466526e+00 2.130741236120448967e+00 -2.662975149300466526e+00 8.347081876822320723e+00
1.049480918123285456e+01 1.301627526911365962e+00 5.080255112884174418e-01 1.301627526911365962e+00 4.824032074111915591e+00 2.513394733871587849e+00 5.080255112884174418e-01 2.513394733871587849e+00 7.770223451013503535e+00
5.965415489273670602e+00 1.328716938053100316e+00 3.306057166910013390e+00 1.328716938053100316e+00 8.456894176354452952e+00 -4.979787697972812288e-02 3.306057166910013390e+00 -4.979787697972812288e-02 8.638063811085885391e+00
8.803786934533198050e+00 2.770902623527502051e+00 -6.675655021132418376e+00 2.770902623527502051e+00 1.183574069288475528e+00 1.168931297323647645e-01 -6.675655021132418376e+00 1.168931297323647645e-01 5.022533045432564514e+00
8.401153156520813070e+00 -1.687082792007920329e+00 3.829812196285116599e+00 -1.687082792007920329e+00 7.946797055271242805e+00 8.574540104181647970e-02 3.829812196285116599e+00 8.574540104181647970e-02 6.834433157644732582e+00
9.657522235565627611e+00 -2.328336585672882375e+00 2.078515160774694059e-01 -2.328336585672882375e+00 1.241630650780720124e+01 5.954485766558524240e+00 2.078515160774694059e-01 5.954485766558524240e+00 1.063763705435247786e+01
1.207439466935364081e+01 -8.161350172433505523e-02 1.670085403445733085e+00 -8.161350172433505523e-02 1.342248625311049359e+01 7.791482922022352930e+00 1.670085403445733085e+00 7.791482922022352930e+00 1.116445987746741153e+01
2.302622587591624637e+00 2.203230598530016682e+00 3.050552965416275075e+00 2.203230598530016682e+00 2.183066929860707361e+01 -1.485904576334985849e+00 3.050552965416275075e+00 -1.485904576334985849e+00 1.055605185330840001e+01
1.094246368139763170e+01 -1.462862162469962812e-01 -6.976021460969112908e+00 -1.462862162469962812e-01 4.053902642693893554e+00 -1.287624350320339950e+00 -6.976021460969112908e+00 -1.287624350320339950e+00 5.819412279829241363e+00
7.197338440712730545e+00 -2.474849207361932368e+00 2.463693079204732683e+00 -2.474849207361932368e+00 1.798431252464387953e+01 -2.132546819520827697e+00 2.463693079204732683e+00 -2.132546819520827697e+00 2.160245261301686881e+01
6.348323693147119862e+00 3.304053478747837502e+00 2.849403050423597428e+00 3.304053478747837502e+00 8.563966970037734328e+00 -1.354747903753233063e+00 2.849403050423597428e+00 -1.354747903753233063e+00 8.710394689686015823e+00
1.018862412153537811e+01 4.876150606872695636e-01 -1.176408337047473385e+00 4.876150606872695636e-01 7.999940072657316215e+00 -3.964008361926441459e+00 -1.176408337047473385e+00 -3.964008361926441459e+00 9.651403628494126252e+00
1.520627246955563194e+01 1.912243004130400825e+00 2.032288829643364547e+00 1.912243004130400825e+00 2.188491604252316147e+00 -1.005806176323901679e+00 2.032288829643364547e+00 -1.005806176323901679e+00 6.916040999233015185e+00
1.607470714391340394e+01 1.105690597221976379e+00 -2.701345211592530049e+00 1.105690597221976379e+00 8.818508948402744352e+00 -9.230153663008870524e+00 -2.701345211592530049e+00 -9.230153663008870524e+00 1.607942769738022548e+01
1.256210029221773183e+01 1.305034928814275297e+00 2.496131318914987407e+00 1.305034928814275297e+00 9.069575603232227223e+00 -6.911478929575631813e-01 2.496131318914987407e+00 -6.911478929575631813e-01 1.048554919865285306e+01
6.343727662673428469e+00 -7.404023968763623342e-02 2.773093096179371830e+00 -7.404023968763623342e-02 6.120673021162048144e+00 5.743192887761837007e+00 2.773093096179371830e+00 5.743192887761837007e+00 9.154975735974913320e+00
1.240032794373425773e+01 -9.185438588203248544e-01 -2.064296899013716935e+00 -9.185438588203248544e-01 5.246832916875241448e-01 -4.022556809241548237e+00 -2.064296899013716935e+00 -4.022556809241548237e+00 7.313846681193603594e+00
1.191723533175201233e+01 1.568423699827535822e+00 4.304205179156445737e+00 1.568423699827535822e+00 1.184746849478313990e+01 4.443767153774444978e+00 4.304205179156445737e+00 4.443767153774444978e+00 1.820255039037556699e+01
1.753266196842685076e+01 1.584662630158843122e+00 1.670158985214400538e+00 1.584662630158843122e+00 1.142486009664556157e+01 -3.781474634406635449e+00 1.670158985214400538e+00 -3.781474634406635449e+00 1.569244419554980929e+01
1.132622656581483334e+01 3.877640345918976994e+00 3.420646621269480825e-01 3.877640345918976994e+00 1.477970763631816453e+01 -1.848889101307702676e+00 3.420646621269480825e-01 -1.848889101307702676e+00 1.025244781565033847e+01
7.760952148161400777e-01 -2.465889211992654317e+00 4.054983728679699695e+00 -2.465889211992654317e+00 1.497143342478535288e+01 8.121050003747931623e-01 4.054983728679699695e+00 8.121050003747931623e-01 1.011974026579051511e+01
7.120734159393834473e-01 4.474071522193343142e+00 -4.237953286675459452e+00 4.474071522193343142e+00 1.727725964938203873e+01 -1.540519229094407860e+00 -4.237953286675459452e+00 -1.540519229094407860e+00 1.462172191885303718e+01
1.537659162347663688e+01 -2.209043558254747630e+00 -4.007512167617074184e+00 -2.209043558254747630e+00 1.870703265649584068e+01 -7.715133346825767902e+00 -4.007512167617074184e+00 -7.715133346825767902e+00 1.983114699656494651e+01