2.353720000000000034e+00 1.802990000000000093e+00 3.645100000000000007e-01 2.724460000000000104e+00 2.551569999999999894e+00 4.814519999999999911e+00 2.757340000000000124e+00 4.480970000000000120e+00 1.714760000000000062e+00 2.949759999999999938e+00 1.507600000000000051e-01 2.914260000000000073e+00 4.324999999999999956e-01 3.029869999999999841e+00 2.878089999999999815e+00 4.908100000000000129e+00 2.570040000000000102e+00 2.755220000000000002e+00 1.848330000000000028e+00 7.091210000000000235e+00 5.248680000000000234e+00 2.871420000000000083e+00 7.275570000000000093e+00 2.707000000000000031e-02 2.126170000000000115e+00 9.984540000000000859e+00 7.931980000000000253e+00 2.368269999999999875e+00 5.258720000000000283e+00 7.335869999999999891e+00 3.437000000000000055e-01 7.954970000000000319e+00 8.197480000000000544e+00 4.629269999999999996e+00 8.303480000000000416e+00 7.046660000000000146e+00 8.037969999999999615e+00 2.490270000000000206e+00 5.061679999999999957e+00 7.387150000000000105e+00 2.677039999999999864e+00 9.836550000000000793e+00 7.775509999999999700e+00 4.670460000000000278e+00 7.093180000000000263e+00 8.059100000000000819e+00 2.610700000000000243e-01 7.867530000000000356e+00 5.460580000000000211e+00 2.277540000000000120e+00 7.292930000000000135e+00 9.812749999999999417e+00 2.392399999999999860e+00 7.721449999999999925e+00 7.441650000000000098e+00 6.842999999999999972e+00 3.381199999999999761e-01 7.037860000000000227e+00 7.846849999999999881e+00 4.896060000000000301e+00 6.837419999999999831e+00 9.843930000000000291e+00 2.902499999999999858e+00 8.297000000000000597e+00 5.658330000000000304e+00 3.178339999999999943e+00 5.281880000000000130e+00 7.126260000000000261e+00 2.064789999999999903e+00 9.578599999999999781e+00 8.218540000000000845e+00 2.163209999999999855e+00 4.992329999999999934e+00 1.646400000000000086e-01 1.665999999999999981e-01 4.825070000000000192e+00 5.120599999999999596e+00 4.921909999999999563e+00 9.267000000000000237e-02 9.888609999999999900e+00 4.793569999999999887e+00 9.911680000000000490e+00 5.012990000000000279e+00 3.987000000000000266e-02 1.181799999999999962e+00 3.739149999999999974e+00 8.978460000000000107e+00 8.693770000000000664e+00 3.966410000000000213e+00 1.265339999999999909e+00 3.865969999999999906e+00 1.306370000000000031e+00 8.851350000000000051e+00 6.158520000000000216e+00 1.324719999999999898e+00 1.349409999999999998e+00 2.665410000000000057e+00 2.274900000000000144e+00 2.520480000000000054e+00 1.286480000000000068e+00 8.665309999999999846e+00 3.590969999999999995e+00 8.950279999999999347e+00 8.787950000000000372e+00 6.151749999999999829e+00 3.532439999999999802e+00 6.123910000000000409e+00 3.684439999999999937e+00 5.935459999999999958e+00 6.277219999999999800e+00 6.227470000000000283e+00 2.522190000000000154e+00 7.582819999999999894e+00 7.541439999999999699e+00 6.101320000000000299e+00 3.972210000000000019e+00 3.994130000000000180e+00 3.857800000000000118e+00 3.801250000000000018e+00 6.256960000000000299e+00 8.893489999999999895e+00 9.350899999999999768e-01 3.564589999999999925e+00 1.302130000000000010e+00 1.145659999999999901e+00 5.954620000000000246e+00 7.614609999999999879e+00 2.489040000000000141e+00 7.357870000000000132e+00 6.084279999999999688e+00 8.915179999999999438e+00 8.963309999999999889e+00 3.784370000000000012e+00 8.839130000000000820e+00 1.304529999999999967e+00 8.751039999999999708e+00 6.148189999999999600e+00 8.633070000000000022e+00 1.058300000000000018e+00 6.345959999999999823e+00 1.074300000000000033e+00 7.386029999999999873e+00 7.670149999999999579e+00 2.542149999999999910e+00 2.796199999999999797e-01 9.929660000000000153e+00 9.907659999999999911e+00 9.817989999999999995e+00 4.678919999999999746e+00 5.103950000000000209e+00 4.993540000000000312e+00 1.737499999999999878e-01 4.786439999999999806e+00 4.930100000000000371e+00 5.007349999999999746e+00 1.375899999999999901e-01
2.178630000000000067e+00 1.949610000000000065e+00 3.288900000000000157e-01 2.151730000000000143e+00 3.075699999999999878e+00 4.920860000000000234e+00 2.611889999999999823e+00 4.914439999999999920e+00 2.371539999999999981e+00 2.660969999999999835e+00 3.324400000000000133e-01 2.961539999999999839e+00 1.208899999999999975e-01 2.875999999999999890e+00 2.760240000000000027e+00 4.623079999999999856e+00 2.887290000000000134e+00 1.943889999999999896e+00 1.663040000000000074e+00 6.683099999999999596e+00 5.303650000000000198e+00 2.575800000000000090e+00 7.417889999999999873e+00 9.680619999999999337e+00 2.184670000000000112e+00 9.670260000000000744e+00 7.755449999999999733e+00 3.138869999999999827e+00 5.285009999999999764e+00 7.935990000000000322e+00 1.750500000000000111e-01 7.674529999999999852e+00 7.785590000000000011e+00 4.531119999999999592e+00 8.230180000000000717e+00 6.800329999999999764e+00 7.269459999999999589e+00 2.056430000000000202e+00 5.277479999999999727e+00 7.002559999999999896e+00 3.280549999999999855e+00 9.663660000000000139e+00 7.731930000000000192e+00 4.777540000000000120e+00 6.916750000000000398e+00 8.112239999999999895e+00 2.742600000000000038e-01 8.092639999999999390e+00 5.196369999999999933e+00 2.030769999999999964e+00 7.157110000000000305e+00 9.735079999999999956e+00 2.910099999999999909e+00 7.377399999999999736e+00 7.370519999999999960e+00 7.283890000000000420e+00 1.833599999999999952e-01 7.133779999999999788e+00 7.804929999999999701e+00 4.688500000000000334e+00 7.057789999999999786e+00 9.708819999999999339e+00 2.516820000000000057e+00 8.228719999999999146e+00 5.317179999999999573e+00 3.014060000000000183e+00 4.996430000000000149e+00 7.107960000000000278e+00 2.333340000000000192e+00 9.616339999999999222e+00 8.294660000000000366e+00 2.043569999999999887e+00 5.127080000000000304e+00 9.990819999999999368e+00 9.805099999999999483e+00 4.968950000000000422e+00 5.066970000000000418e+00 5.214819999999999567e+00 3.980999999999999817e-02 9.821770000000000778e+00 5.020679999999999588e+00 9.985820000000000363e+00 5.033000000000000362e+00 6.067999999999999783e-02 1.294499999999999984e+00 3.861310000000000020e+00 9.034349999999999881e+00 8.694300000000000139e+00 3.786119999999999930e+00 1.200309999999999988e+00 3.861839999999999939e+00 1.235489999999999977e+00 8.715719999999999246e+00 6.439140000000000086e+00 1.271870000000000056e+00 8.353399999999999714e-01 2.422130000000000116e+00 2.682850000000000179e+00 2.630139999999999922e+00 1.193040000000000100e+00 8.564709999999999823e+00 3.853149999999999853e+00 8.678300000000000125e+00 8.747609999999999886e+00 6.181259999999999977e+00 3.604900000000000215e+00 6.152929999999999566e+00 4.019709999999999894e+00 6.167180000000000106e+00 6.425360000000000404e+00 6.227400000000000269e+00 2.407169999999999810e+00 7.448800000000000310e+00 7.360619999999999941e+00 6.152619999999999756e+00 3.907999999999999918e+00 3.953089999999999993e+00 3.929170000000000051e+00 3.793079999999999785e+00 6.400809999999999889e+00 8.794470000000000454e+00 1.014829999999999899e+00 3.707190000000000207e+00 1.222290000000000099e+00 1.097369999999999957e+00 6.127410000000000245e+00 7.444849999999999746e+00 2.423729999999999940e+00 7.471379999999999910e+00 6.184569999999999901e+00 8.747920000000000584e+00 8.571799999999999642e+00 3.950639999999999930e+00 8.934929999999999595e+00 1.110829999999999984e+00 8.687089999999999534e+00 6.015159999999999840e+00 8.880620000000000402e+00 1.163149999999999906e+00 6.375740000000000407e+00 1.242250000000000076e+00 7.376089999999999591e+00 7.468549999999999578e+00 2.430330000000000101e+00 2.115299999999999958e-01 9.988260000000000360e+00 9.713720000000000354e+00 9.900769999999999627e+00 4.613480000000000025e+00 5.167200000000000237e+00 5.078170000000000073e+00 2.313600000000000101e-01 4.909440000000000026e+00 4.924970000000000070e+00 5.051890000000000214e+00 1.622000000000000108e-01
2.097830000000000084e+00 2.246329999999999938e+00 2.682100000000000040e-01 2.325779999999999959e+00 2.830890000000000128e+00 4.717489999999999739e+00 2.840869999999999784e+00 4.794900000000000162e+00 2.289099999999999913e+00 2.950489999999999835e+00 1.776999999999999968e-01 3.242640000000000189e+00 4.365499999999999936e-01 2.564659999999999940e+00 2.691310000000000091e+00 4.898080000000000211e+00 2.492799999999999905e+00 2.217900000000000205e+00 1.863129999999999953e+00 6.835989999999999789e+00 5.323500000000000121e+00 2.115650000000000031e+00 7.835880000000000400e+00 9.953430000000000888e+00 2.183660000000000156e+00 9.806359999999999744e+00 7.582499999999999574e+00 2.920020000000000060e+00 5.292200000000000237e+00 7.998009999999999842e+00 9.424000000000000432e-02 7.644689999999999763e+00 7.967240000000000322e+00 4.674710000000000143e+00 7.777890000000000192e+00 6.967100000000000293e+00 7.550519999999999676e+00 2.385590000000000099e+00 5.128879999999999661e+00 7.099280000000000257e+00 3.234480000000000022e+00 9.557980000000000587e+00 7.942479999999999762e+00 4.658590000000000231e+00 6.835200000000000387e+00 7.820839999999999570e+00 2.453299999999999925e-01 8.120490000000000208e+00 5.345489999999999853e+00 2.068960000000000132e+00 7.178060000000000329e+00 9.821469999999999700e+00 2.592900000000000205e+00 7.554969999999999963e+00 7.182459999999999845e+00 7.129360000000000142e+00 2.360899999999999943e-01 7.202219999999999622e+00 7.787829999999999586e+00 4.732079999999999842e+00 6.877559999999999896e+00 9.836439999999999628e+00 2.629329999999999945e+00 8.142530000000000712e+00 5.364659999999999762e+00 2.943550000000000111e+00 5.276480000000000281e+00 7.108399999999999608e+00 2.261010000000000186e+00 9.711980000000000501e+00 8.304850000000000065e+00 2.007439999999999891e+00 4.914080000000000226e+00 3.545000000000000234e-02 9.900339999999999918e+00 5.043680000000000163e+00 5.010849999999999582e+00 5.018830000000000346e+00 9.888139999999999930e+00 2.999999999999999737e-04 4.963930000000000398e+00 9.940350000000000463e+00 4.969420000000000393e+00 6.701999999999999624e-02 1.162099999999999911e+00 3.908609999999999918e+00 8.837730000000000530e+00 8.916610000000000369e+00 3.678819999999999979e+00 1.216290000000000093e+00 3.682220000000000049e+00 1.211170000000000080e+00 8.763840000000000074e+00 6.277779999999999916e+00 1.251789999999999958e+00 8.779799999999999827e-01 2.695959999999999912e+00 2.423820000000000086e+00 2.491210000000000147e+00 1.174439999999999928e+00 8.795189999999999841e+00 3.839529999999999887e+00 8.794430000000000192e+00 8.815770000000000550e+00 6.276340000000000252e+00 3.855290000000000106e+00 6.236839999999999939e+00 3.871039999999999814e+00 6.230439999999999756e+00 6.173569999999999780e+00 6.240560000000000329e+00 2.431599999999999984e+00 7.514929999999999666e+00 7.720819999999999794e+00 6.197160000000000224e+00 3.863809999999999967e+00 3.741519999999999957e+00 3.784860000000000113e+00 3.857040000000000024e+00 6.240560000000000329e+00 8.746629999999999683e+00 1.050340000000000051e+00 3.626469999999999860e+00 1.172430000000000083e+00 1.206949999999999967e+00 6.067789999999999573e+00 7.517479999999999940e+00 2.528369999999999784e+00 7.454209999999999781e+00 5.931829999999999714e+00 8.846439999999999415e+00 8.608299999999999841e+00 4.021819999999999951e+00 8.922760000000000247e+00 1.386330000000000062e+00 8.652240000000000819e+00 6.049030000000000129e+00 8.776099999999999568e+00 1.009069999999999911e+00 6.120230000000000281e+00 1.298780000000000046e+00 7.489379999999999704e+00 7.574220000000000397e+00 2.494749999999999801e+00 7.571999999999999564e-02 9.928570000000000562e+00 9.722509999999999764e+00 1.077000000000000006e-02 4.703380000000000116e+00 5.089739999999999931e+00 5.150990000000000180e+00 1.350500000000000034e-01 4.927789999999999893e+00 4.874950000000000117e+00 5.123199999999999754e+00 2.483599999999999974e-01
1.960760000000000058e+00 1.866700000000000026e+00 3.785100000000000131e-01 2.305509999999999948e+00 3.074170000000000069e+00 4.710460000000000313e+00 2.713639999999999830e+00 4.775590000000000224e+00 2.135810000000000208e+00 2.869889999999999830e+00 3.132900000000000129e-01 3.142360000000000042e+00 1.471500000000000030e-01 2.853920000000000012e+00 2.887960000000000083e+00 4.783179999999999765e+00 2.851840000000000153e+00 2.130469999999999864e+00 1.825299999999999923e+00 6.762880000000000003e+00 5.376730000000000231e+00 2.235710000000000086e+00 7.693830000000000169e+00 9.884969999999999146e+00 2.158970000000000056e+00 9.720489999999999853e+00 7.718149999999999622e+00 2.978299999999999947e+00 5.285829999999999806e+00 7.872300000000000075e+00 1.921899999999999997e-01 7.633210000000000051e+00 7.753650000000000375e+00 4.637789999999999857e+00 8.095539999999999736e+00 7.057409999999999961e+00 7.382859999999999978e+00 2.089379999999999793e+00 5.008070000000000022e+00 6.779449999999999754e+00 3.124509999999999899e+00 9.604290000000000660e+00 7.789760000000000240e+00 4.797390000000000043e+00 6.933480000000000310e+00 7.733789999999999942e+00 2.748900000000000232e-01 7.929409999999999847e+00 5.179289999999999949e+00 1.870519999999999960e+00 7.002089999999999925e+00 9.774639999999999773e+00 2.538440000000000030e+00 7.496590000000000309e+00 7.113269999999999982e+00 6.940970000000000084e+00 2.978799999999999781e-01 7.206859999999999822e+00 7.804509999999999614e+00 4.768200000000000216e+00 7.163800000000000168e+00 9.733670000000000044e+00 2.644670000000000076e+00 8.099059999999999704e+00 5.271639999999999660e+00 2.949329999999999785e+00 5.079299999999999926e+00 7.325870000000000104e+00 2.281060000000000088e+00 9.613709999999999312e+00 8.075359999999999872e+00 1.969589999999999952e+00 5.022160000000000402e+00 7.641000000000000569e-02 6.097000000000000336e-02 5.039880000000000138e+00 5.067339999999999733e+00 5.012540000000000440e+00 7.242999999999999439e-02 9.939539999999999154e+00 4.888989999999999725e+00 9.930939999999999657e+00 4.960930000000000284e+00 1.555999999999999918e-02 1.263260000000000050e+00 3.846449999999999925e+00 8.928869999999999862e+00 8.739639999999999631e+00 3.770719999999999850e+00 1.097509999999999986e+00 3.822290000000000187e+00 1.223019999999999996e+00 8.854189999999999117e+00 6.249240000000000350e+00 1.247519999999999962e+00 1.158860000000000001e+00 2.400619999999999976e+00 2.546349999999999891e+00 2.486580000000000013e+00 1.252089999999999925e+00 8.682069999999999510e+00 3.833990000000000009e+00 8.809060000000000556e+00 8.900909999999999656e+00 6.107920000000000016e+00 3.697159999999999780e+00 6.120989999999999931e+00 3.879169999999999785e+00 6.066329999999999778e+00 6.364230000000000054e+00 6.264219999999999899e+00 2.458229999999999915e+00 7.479289999999999772e+00 7.439610000000000056e+00 6.309580000000000410e+00 4.040009999999999657e+00 3.844539999999999846e+00 3.928150000000000031e+00 3.853629999999999889e+00 6.237400000000000055e+00 8.912430000000000518e+00 9.910700000000000065e-01 3.578269999999999840e+00 1.281819999999999959e+00 1.176409999999999956e+00 5.972999999999999865e+00 7.414089999999999847e+00 2.561729999999999841e+00 7.381639999999999979e+00 6.079989999999999561e+00 8.755789999999999296e+00 8.866699999999999804e+00 3.759399999999999853e+00 8.943070000000000519e+00 1.247239999999999904e+00 8.771050000000000679e+00 6.167029999999999568e+00 8.879739999999999966e+00 9.811100000000000376e-01 6.209850000000000314e+00 1.208779999999999966e+00 7.382010000000000183e+00 7.477879999999999860e+00 2.519810000000000105e+00 9.978989999999999583e+00 9.874840000000000728e+00 9.858359999999999346e+00 1.162399999999999961e-01 4.843200000000000394e+00 4.911660000000000359e+00 5.178049999999999820e+00 9.977029999999999177e+00 4.984630000000000116e+00 4.897350000000000314e+00 5.108810000000000073e+00 2.652100000000000013e-01
2.086050000000000182e+00 1.973170000000000091e+00 3.066599999999999882e-01 2.143460000000000143e+00 3.154409999999999936e+00 4.794439999999999813e+00 2.777190000000000047e+00 4.866200000000000081e+00 2.053199999999999914e+00 3.010320000000000107e+00 3.860600000000000143e-01 3.188590000000000035e+00 2.043899999999999884e-01 2.911560000000000148e+00 2.700499999999999901e+00 4.769750000000000156e+00 3.045650000000000190e+00 2.179910000000000014e+00 2.121849999999999792e+00 7.287939999999999863e+00 5.309190000000000076e+00 2.350589999999999957e+00 7.665969999999999729e+00 9.926090000000000302e+00 2.123829999999999885e+00 9.782640000000000668e+00 7.819549999999999557e+00 3.051719999999999988e+00 5.370099999999999874e+00 8.088990000000000791e+00 1.911899999999999988e-01 7.672729999999999606e+00 7.940730000000000288e+00 4.759389999999999787e+00 8.021079999999999544e+00 7.146300000000000097e+00 7.438130000000000130e+00 2.092830000000000190e+00 5.311340000000000394e+00 7.138700000000000045e+00 2.972399999999999931e+00 9.642960000000000420e+00 7.934929999999999595e+00 4.660000000000000142e+00 6.646779999999999688e+00 8.052749999999999631e+00 2.526499999999999857e-01 8.002589999999999648e+00 5.354009999999999714e+00 2.054040000000000088e+00 7.163759999999999906e+00 9.937160000000000437e+00 2.710960000000000036e+00 7.181269999999999598e+00 7.291579999999999728e+00 7.016200000000000436e+00 1.268700000000000105e-01 7.219420000000000393e+00 7.771040000000000170e+00 4.777230000000000310e+00 7.048969999999999736e+00 9.805889999999999773e+00 2.730510000000000215e+00 7.843210000000000015e+00 5.289769999999999861e+00 3.005640000000000089e+00 5.090230000000000032e+00 7.216479999999999784e+00 2.210259999999999891e+00 9.573510000000000630e+00 8.141400000000000858e+00 1.921859999999999902e+00 4.941089999999999982e+00 8.400000000000000522e-02 2.562000000000000041e-02 4.922240000000000393e+00 4.954780000000000406e+00 5.174680000000000391e+00 7.810000000000000275e-02 9.989309999999999690e+00 4.969789999999999708e+00 9.903900000000000148e+00 4.958649999999999558e+00 9.849750000000000227e+00 1.265430000000000055e+00 3.799819999999999975e+00 8.841369999999999507e+00 8.634219999999999118e+00 3.896009999999999973e+00 1.108559999999999990e+00 3.754239999999999799e+00 1.213270000000000071e+00 8.778169999999999362e+00 6.140509999999999913e+00 1.382300000000000084e+00 1.118770000000000042e+00 2.568550000000000111e+00 2.540900000000000158e+00 2.589199999999999946e+00 1.204020000000000090e+00 8.819089999999999208e+00 3.774700000000000166e+00 8.835979999999999279e+00 8.866880000000000095e+00 6.119919999999999582e+00 3.700699999999999878e+00 6.065649999999999764e+00 3.983350000000000168e+00 6.125210000000000043e+00 6.167150000000000354e+00 6.259120000000000239e+00 2.544410000000000061e+00 7.554389999999999716e+00 7.679879999999999818e+00 6.207840000000000025e+00 3.794589999999999907e+00 4.024309999999999832e+00 3.805600000000000094e+00 3.846810000000000063e+00 6.405509999999999593e+00 8.909319999999999240e+00 1.175489999999999924e+00 3.714059999999999917e+00 1.315409999999999968e+00 1.158239999999999936e+00 6.099820000000000242e+00 7.698649999999999771e+00 2.360910000000000064e+00 7.405230000000000423e+00 6.196769999999999889e+00 8.920769999999999200e+00 8.927780000000000271e+00 3.795760000000000023e+00 8.960779999999999745e+00 1.258199999999999985e+00 8.685810000000000031e+00 5.985739999999999839e+00 8.592769999999999797e+00 9.487299999999999622e-01 6.257249999999999979e+00 1.105140000000000011e+00 7.410980000000000345e+00 7.486239999999999561e+00 2.413730000000000153e+00 1.546999999999999938e-02 9.854620000000000601e+00 9.862170000000000769e+00 1.129999999999999928e-02 4.935109999999999886e+00 4.843639999999999723e+00 5.167130000000000223e+00 9.913090000000000401e+00 4.985710000000000086e+00 4.897369999999999557e+00 5.068159999999999776e+00 1.990000000000000102e-01
1.950560000000000072e+00 1.976499999999999924e+00 2.960800000000000098e-01 2.305109999999999992e+00 3.053069999999999951e+00 4.810620000000000118e+00 2.564299999999999802e+00 4.890719999999999956e+00 2.461199999999999832e+00 2.898569999999999869e+00 3.706099999999999950e-01 3.106799999999999784e+00 2.285800000000000054e-01 2.769210000000000171e+00 2.986520000000000064e+00 4.718309999999999782e+00 2.781419999999999781e+00 2.127959999999999852e+00 1.853550000000000031e+00 6.885629999999999917e+00 5.167130000000000223e+00 2.341369999999999951e+00 8.036759999999999238e+00 9.708380000000000010e+00 2.233820000000000139e+00 9.849009999999999820e+00 7.571010000000000240e+00 2.907290000000000152e+00 5.211050000000000182e+00 8.114160000000000039e+00 1.953000000000000014e-01 7.593189999999999884e+00 7.808849999999999625e+00 4.584010000000000140e+00 7.986340000000000217e+00 6.996789999999999843e+00 7.157840000000000202e+00 1.822230000000000016e+00 5.148010000000000197e+00 7.014009999999999856e+00 3.204870000000000108e+00 9.535700000000000287e+00 7.615779999999999994e+00 4.639359999999999928e+00 6.891779999999999795e+00 8.084390000000000853e+00 1.651499999999999913e-01 8.087989999999999569e+00 5.231390000000000207e+00 2.002479999999999816e+00 7.234329999999999927e+00 9.622149999999999537e+00 2.619699999999999918e+00 7.199200000000000266e+00 7.096569999999999823e+00 7.045069999999999943e+00 1.826099999999999945e-01 7.214710000000000178e+00 7.922539999999999694e+00 4.804400000000000226e+00 6.968639999999999723e+00 9.796170000000000044e+00 2.732380000000000031e+00 7.700560000000000294e+00 5.223690000000000389e+00 2.842369999999999841e+00 5.220119999999999649e+00 7.139499999999999957e+00 2.261899999999999800e+00 9.687329999999999330e+00 7.948260000000000325e+00 2.236450000000000049e+00 5.070260000000000211e+00 5.961000000000000326e-02 4.578999999999999737e-02 4.980279999999999596e+00 4.972089999999999677e+00 5.060749999999999638e+00 6.708000000000000074e-02 9.935909999999999798e+00 4.866489999999999760e+00 9.961769999999999570e+00 4.976750000000000007e+00 7.606999999999999873e-02 1.131590000000000096e+00 3.742070000000000007e+00 8.846679999999999211e+00 8.776960000000000761e+00 3.669719999999999871e+00 1.149310000000000054e+00 3.810909999999999798e+00 1.277290000000000036e+00 8.966390000000000526e+00 6.361830000000000318e+00 1.341669999999999918e+00 1.029009999999999980e+00 2.422099999999999920e+00 2.547089999999999854e+00 2.474270000000000191e+00 1.358579999999999899e+00 8.744009999999999394e+00 3.770929999999999893e+00 8.979710000000000747e+00 8.767260000000000275e+00 6.161520000000000330e+00 3.759209999999999940e+00 6.199239999999999640e+00 3.957749999999999879e+00 6.032829999999999693e+00 6.251590000000000202e+00 6.250079999999999636e+00 2.385320000000000107e+00 7.436250000000000249e+00 7.476189999999999891e+00 6.199360000000000426e+00 3.769010000000000193e+00 3.872479999999999922e+00 3.865769999999999929e+00 3.785250000000000004e+00 6.358399999999999608e+00 8.736990000000000478e+00 1.051749999999999963e+00 3.740660000000000096e+00 1.147450000000000081e+00 1.293339999999999934e+00 6.007329999999999615e+00 7.374349999999999739e+00 2.463130000000000042e+00 7.455969999999999764e+00 6.066900000000000404e+00 8.836320000000000618e+00 8.736760000000000304e+00 4.050659999999999705e+00 8.966659999999999187e+00 1.486639999999999961e+00 8.674260000000000304e+00 6.096359999999999779e+00 8.776899999999999480e+00 1.045139999999999958e+00 6.344089999999999563e+00 1.178930000000000033e+00 7.426700000000000301e+00 7.452460000000000306e+00 2.525450000000000195e+00 1.954299999999999926e-01 9.885419999999999874e+00 9.836919999999999220e+00 9.885880000000000223e+00 4.997180000000000177e+00 4.863870000000000360e+00 5.166680000000000383e+00 9.931969999999999743e+00 5.018209999999999837e+00 4.929940000000000211e+00 5.086789999999999701e+00 1.532000000000000028e-01
1.988809999999999967e+00 2.076109999999999900e+00 3.526900000000000035e-01 2.119860000000000078e+00 3.209919999999999884e+00 4.753440000000000332e+00 2.969339999999999868e+00 4.760609999999999786e+00 2.096600000000000019e+00 2.894629999999999814e+00 2.513199999999999878e-01 3.139139999999999819e+00 3.377499999999999947e-01 2.489479999999999915e+00 2.777000000000000135e+00 4.858410000000000117e+00 2.577280000000000015e+00 1.965770000000000017e+00 1.893000000000000016e+00 6.940590000000000259e+00 5.544999999999999929e+00 2.791549999999999976e+00 7.414869999999999628e+00 9.928969999999999629e+00 2.207209999999999894e+00 9.821080000000000254e+00 7.782910000000000217e+00 3.033970000000000056e+00 5.328109999999999680e+00 7.964610000000000412e+00 1.848100000000000021e-01 7.778109999999999857e+00 8.057489999999999597e+00 4.704489999999999839e+00 7.940439999999999721e+00 7.045580000000000176e+00 7.456249999999999822e+00 2.221439999999999859e+00 4.957970000000000432e+00 7.051759999999999806e+00 3.197189999999999976e+00 9.621340000000000003e+00 7.985470000000000290e+00 4.644630000000000258e+00 7.021539999999999893e+00 7.670550000000000423e+00 2.946799999999999975e-01 7.800139999999999851e+00 5.250569999999999737e+00 2.154689999999999994e+00 7.001520000000000188e+00 9.761309999999999931e+00 2.159549999999999859e+00 7.796680000000000277e+00 7.134409999999999918e+00 7.243970000000000020e+00 2.843300000000000272e-01 7.590399999999999814e+00 7.517489999999999561e+00 4.776200000000000223e+00 6.674640000000000128e+00 9.614069999999999894e+00 2.941059999999999786e+00 7.996610000000000440e+00 5.194619999999999571e+00 3.019320000000000004e+00 5.205779999999999852e+00 6.987339999999999662e+00 2.382950000000000124e+00 9.772090000000000387e+00 8.063370000000000815e+00 2.026650000000000063e+00 4.983249999999999957e+00 9.987249999999999517e+00 9.971930000000000405e+00 4.908240000000000158e+00 5.049000000000000377e+00 4.972089999999999677e+00 9.903549999999999187e+00 9.941069999999999851e+00 4.958580000000000432e+00 9.955049999999999955e+00 5.005959999999999965e+00 7.830000000000000154e-03 1.229179999999999939e+00 3.921440000000000037e+00 8.725899999999999324e+00 8.871219999999999217e+00 3.671489999999999920e+00 1.183990000000000098e+00 3.807869999999999866e+00 1.276810000000000000e+00 8.823579999999999757e+00 6.285929999999999573e+00 1.132700000000000040e+00 9.637200000000000211e-01 2.606329999999999814e+00 2.538190000000000168e+00 2.554100000000000037e+00 1.209449999999999914e+00 8.741550000000000153e+00 3.954520000000000035e+00 8.738789999999999836e+00 8.897840000000000416e+00 6.319449999999999790e+00 3.520799999999999930e+00 6.165709999999999802e+00 3.850969999999999782e+00 6.189989999999999881e+00 6.161760000000000126e+00 6.209279999999999688e+00 2.524690000000000101e+00 7.550609999999999822e+00 7.558910000000000018e+00 6.082349999999999923e+00 4.035750000000000171e+00 3.660820000000000185e+00 3.774399999999999977e+00 3.871170000000000222e+00 6.266860000000000319e+00 8.790119999999999933e+00 8.547400000000000553e-01 3.497590000000000199e+00 1.028450000000000086e+00 1.235349999999999948e+00 6.069569999999999688e+00 7.525509999999999700e+00 2.574149999999999938e+00 7.397619999999999862e+00 6.126339999999999897e+00 8.771110000000000184e+00 8.705090000000000217e+00 3.915039999999999853e+00 8.817520000000000024e+00 1.364549999999999930e+00 8.632260000000000488e+00 6.095060000000000144e+00 8.859469999999999956e+00 1.136810000000000098e+00 6.212290000000000312e+00 1.263859999999999983e+00 7.546960000000000335e+00 7.482669999999999710e+00 2.441250000000000142e+00 3.141599999999999948e-01 9.899029999999999774e+00 9.790319999999999467e+00 9.811830000000000496e+00 4.893790000000000084e+00 4.998610000000000220e+00 5.077880000000000393e+00 3.806999999999999967e-02 5.061840000000000117e+00 4.951690000000000147e+00 5.131199999999999761e+00 1.527399999999999869e-01