-2.182636200700000018e+02
-2.196241893199999993e+02
-2.201832446900000093e+02
-2.205670755099999951e+02
-2.204844463700000006e+02
-2.201666978599999993e+02
-2.200960791900000117e+02
-2.198517179199999987e+02
-2.199799586800000100e+02
-2.199810516899999868e+02
-2.199160703000000012e+02
-2.200850281900000027e+02
-2.198506602699999917e+02
-2.195268752700000050e+02
-2.195460641699999940e+02
-2.197329445700000008e+02
-2.200636658100000034e+02
-2.197118873699999995e+02
-2.198017050100000063e+02
-2.197972583000000100e+02
-2.193849172399999929e+02
-2.194584374599999990e+02
-2.196926671200000101e+02
-2.195346872300000030e+02
-2.197466835600000081e+02
-2.193168487799999866e+02
-2.192770200600000123e+02
-2.191187742900000046e+02
-2.190099160400000073e+02
-2.191981345499999918e+02
-2.193294688000000008e+02
-2.193548020599999973e+02
-2.194704549999999870e+02
-2.191693706899999938e+02
-2.193168083299999864e+02
-2.190447634100000016e+02
-2.193039941199999987e+02
-2.191998883900000124e+02
-2.193803335100000140e+02
-2.192315201000000116e+02
-2.190687350000000038e+02
-2.188375172599999985e+02
-2.190223528799999997e+02
-2.189490437499999871e+02
-2.189040575600000125e+02
-2.187552978100000018e+02
-2.185730610900000102e+02
-2.190106984399999988e+02
-2.191147750300000041e+02
-2.184341571500000043e+02
-2.186352430299999980e+02
-2.183813642099999868e+02
-2.190407714099999907e+02
-2.185818232999999964e+02
-2.186569705199999873e+02
-2.190271146899999906e+02
-2.185934417900000142e+02
-2.184447014300000092e+02
-2.180195362800000112e+02
-2.180608874799999910e+02
-2.180843550900000025e+02
-2.184049801900000034e+02
-2.182216195700000014e+02
-2.177282264099999907e+02
-2.177111956999999904e+02
-2.179940874600000029e+02
-2.180197017600000038e+02
-2.182234923400000071e+02
-2.181825407899999902e+02
-2.182883257899999876e+02
-2.176176384999999982e+02
-2.184146925999999951e+02
-2.176895509000000004e+02
-2.178630768699999862e+02
-2.180008758600000078e+02
-2.176487587100000098e+02
-2.176290024200000062e+02
-2.168274306300000092e+02
-2.172151742099999865e+02
-2.170821916200000032e+02
-2.181064309999999864e+02
-2.179841506500000037e+02
-2.178893774400000041e+02
-2.172902514399999916e+02
-2.170086592600000017e+02
-2.173836757699999964e+02
-2.175259265999999911e+02
-2.173471342100000072e+02
-2.178212731300000087e+02
-2.177634414700000036e+02
-2.169764632700000107e+02
-2.174004395000000045e+02
-2.172087366700000075e+02
-2.180237582999999972e+02
-2.167389672900000051e+02
-2.171286303599999883e+02
-2.159208195600000124e+02
-2.170416792599999951e+02
-2.165179868399999918e+02
-2.169072072900000023e+02
-2.176064632000000074e+02
-2.162999863100000084e+02
-2.173817485399999896e+02
-2.166473790299999962e+02
-2.164963327099999901e+02
-2.172644375900000000e+02
-2.173385257099999990e+02
-2.171763380399999903e+02
-2.168479581299999950e+02
-2.159401020999999901e+02
-2.161637246200000106e+02
-2.159240807099999984e+02
-2.166659119299999929e+02
-2.170385543900000016e+02
-2.165164549399999885e+02
-2.161475182000000075e+02
-2.159977806900000132e+02
-2.158178601799999967e+02
-2.164614994799999863e+02
-2.163040966099999878e+02
-2.168361014300000136e+02
-2.167362261300000057e+02
-2.154499423299999989e+02
-2.163347495200000026e+02
-2.155642684700000018e+02
-2.157248621200000116e+02
-2.168013129599999900e+02
-2.148889765899999986e+02
-2.148615520699999877e+02
-2.149792983400000139e+02
-2.163829062599999986e+02
-2.156087611499999923e+02
-2.154216942500000016e+02
-2.150230401299999983e+02
-2.149071411699999885e+02
-2.153600104200000089e+02
-2.162666839700000025e+02
-2.158744111800000098e+02
-2.161431772200000125e+02
-2.153415841300000011e+02
-2.153538008699999864e+02
-2.149181257900000048e+02
-2.162106516000000056e+02
-2.164677947600000039e+02
-2.156515894400000093e+02
-2.146566146600000025e+02
-2.139913648499999965e+02
-2.133885971100000063e+02
-2.142134213299999885e+02
-2.147823832100000061e+02
-2.156369630000000086e+02
-2.154740061200000127e+02
-2.149273913799999889e+02
-2.146811993199999904e+02
-2.146134193000000039e+02
-2.147360485499999925e+02
-2.150254350900000020e+02
-2.159650767900000119e+02
-2.139118510399999877e+02
-2.146213822500000106e+02
-2.139200522399999898e+02
-2.132867237799999884e+02
-2.147111880999999869e+02
-2.155351702000000103e+02
-2.143293159300000070e+02
-2.137574552000000097e+02
-2.148207011000000080e+02
-2.146006640200000106e+02
-2.139092702099999883e+02
-2.151875778099999934e+02
-2.149898404399999947e+02
-2.130086696500000016e+02
-2.128118274999999926e+02
-2.123802963599999885e+02
-2.147372236399999963e+02
-2.145068170499999951e+02
-2.138653387800000019e+02
-2.140207305899999994e+02
-2.129779723999999987e+02
-2.136292656399999998e+02
-2.140412714699999981e+02
-2.141730016500000033e+02
-2.137370093700000098e+02
-2.130204718800000023e+02
-2.123075382499999932e+02
-2.135939519800000141e+02
-2.130882965899999988e+02
-2.140015205500000093e+02
-2.123546124000000077e+02
-2.116197464699999955e+02
-2.117412536200000091e+02
-2.109820237300000088e+02
-2.124009933799999885e+02
-2.135249052899999924e+02
-2.133664600099999973e+02
-2.137463604700000133e+02
-2.138061163300000089e+02
-2.140073235000000125e+02
-2.126655111299999987e+02
-2.122043774900000130e+02
