-7.244530000000000136e-01 3.295580000000000176e-01 1.820390000000000064e-01 -1.432599999999999985e-01 -2.212840000000000085e-01 -4.167739999999999778e-01 1.738280000000000103e-01 2.759400000000000186e-01 9.319800000000000306e-02 -2.175399999999999903e-02 -2.027819999999999900e-01 4.593419999999999725e-01 -1.468129999999999991e-01 -3.399639999999999884e-01 -2.174200000000000091e-02 -4.404500000000000082e-01 -3.606199999999999684e-02 -1.293940000000000090e-01 1.393560000000000076e-01 7.882000000000000117e-02 1.570890000000000064e-01 1.599119999999999986e-01 -3.780959999999999877e-01 -1.210069999999999979e+00 1.761159999999999948e-01 -4.955010000000000248e-01 -3.399220000000000019e-01 9.460000000000000093e-04 -2.735900000000000137e-02 4.381220000000000114e-01 -1.345220000000000027e-01 -4.185969999999999969e-01 -3.642880000000000007e-01 1.447160000000000113e-01 -1.582959999999999923e-01 -1.456400000000000056e-02 -3.529470000000000107e-01 1.873299999999999965e-01 2.160440000000000138e-01 -1.995750000000000024e-01 8.008200000000000041e-02 -4.864370000000000083e-01 -2.939990000000000103e-01 5.977550000000000363e-01 -2.167810000000000015e-01 -3.303860000000000130e-01 -2.782140000000000168e-01 7.756899999999999906e-02 -7.195510000000000517e-01 -3.231799999999999951e-02 -2.259799999999999864e-01 3.628009999999999846e-01 -1.638880000000000059e-01 -3.345339999999999980e-01 -6.610749999999999682e-01 2.728269999999999862e-01 1.323259999999999992e-01 9.190900000000000458e-02 1.326060000000000016e-01 -1.201180000000000025e-01 2.193749999999999867e-01 -2.488980000000000081e-01 1.775710000000000066e-01 -3.707420000000000160e-01 -2.875960000000000183e-01 -1.636249999999999927e-01 -4.964629999999999876e-01 -3.239179999999999837e-01 1.186770000000000047e-01 -9.202499999999999569e-02 6.829000000000000001e-03 -4.166469999999999896e-01 -4.547240000000000171e-01 -1.348519000000000023e+00 -7.089280000000000026e-01 -6.700840000000000130e-01 3.378900000000000237e-01 1.557519000000000098e+00 6.465670000000000028e-01 -4.510819999999999830e-01 1.069574999999999942e+00 1.989350000000000007e-01 4.203330000000000122e-01 -1.526173999999999920e+00 8.375399999999999512e-02 4.802009999999999890e-01 4.245820000000000149e-01 9.549299999999999455e-02 1.383749999999999980e-01 5.500169999999999781e-01 5.956350000000000255e-01 1.112400000000000021e-02 -7.285500000000000309e-02 2.404280000000000028e-01 1.098480000000000012e-01 -5.719220000000000415e-01 -5.960159999999999902e-01 1.028734999999999955e+00 8.017299999999999427e-02 -4.481649999999999801e-01 3.589319999999999733e-01 9.398600000000000287e-01 2.453130000000000033e-01 -7.246800000000000463e-02 -3.660990000000000077e-01 3.184779999999999833e-01 -2.675339999999999940e-01 3.999329999999999830e-01 -5.903100000000000014e-02 2.719420000000000170e-01 -5.789899999999999908e-02 -3.294380000000000086e-01 2.132799999999999974e-02 2.792499999999999843e-02 1.810689999999999911e+00 -5.079810000000000159e-01 -1.131895000000000095e+00 -1.013239999999999974e-01 6.440310000000000201e-01 -1.553200000000000067e-02 -6.848400000000000321e-02 6.814440000000000497e-01 -6.271090000000000275e-01 -6.124249999999999972e-01 -2.531070000000000264e-01 6.275400000000000422e-02 3.224699999999999789e-01 -5.493679999999999675e-01 7.146909999999999652e-01 6.212959999999999594e-01 1.637900000000000120e-02 -2.713799999999999893e-02 7.919699999999999518e-01 1.072549999999999892e+00 -2.752999999999999892e-01 8.564180000000000126e-01 -5.769570000000000531e-01 5.854300000000000059e-01 -4.352739999999999942e-01 -4.194010000000000238e-01 6.829950000000000188e-01 4.184720000000000106e-01 -2.665040000000000187e-01 9.134399999999999464e-02 -5.128329999999999833e-01 4.691330000000000222e-01 5.291099999999999970e-02 4.709430000000000005e-01 2.014789999999999914e-01 1.134999999999999941e-03 1.041129999999999972e-01 -1.060610000000000025e-01 5.595560000000000533e-01 1.258769999999999889e-01 2.062849999999999961e-01 -1.064700000000000021e-02
-1.401380000000000126e-01 1.617109999999999936e-01 1.519919999999999882e-01 2.103220000000000089e-01 -2.555009999999999781e-01 -9.289899999999999547e-02 3.784499999999999670e-02 -1.435109999999999997e-01 -2.959109999999999796e-01 2.563469999999999915e-01 2.195300000000000029e-02 1.196890000000000037e-01 7.881799999999999917e-02 -4.090550000000000019e-01 1.781429999999999958e-01 4.763029999999999764e-01 -7.508599999999999997e-02 2.160100000000000076e-01 1.345530000000000059e-01 1.919730000000000047e-01 -1.260000000000000052e-03 2.287720000000000031e-01 2.109469999999999956e-01 6.823799999999999311e-02 8.706200000000000050e-02 3.485690000000000177e-01 6.744300000000000295e-02 -2.044269999999999976e-01 8.892300000000000204e-02 3.336830000000000074e-01 -2.898809999999999998e-01 -4.634599999999999831e-02 9.543400000000000494e-02 1.866400000000000003e-01 -8.234800000000000453e-02 -9.253200000000000314e-02 -7.706399999999999362e-02 -3.599999999999999728e-02 -4.651480000000000059e-01 -6.645800000000000318e-02 -1.172249999999999959e-01 -4.162040000000000184e-01 -1.331990000000000118e-01 -2.503059999999999730e-01 1.271319999999999950e-01 -3.121349999999999958e-01 6.112200000000000272e-02 -1.538029999999999953e-01 5.780039999999999623e-01 -2.159499999999999961e-02 -4.204269999999999952e-01 1.175059999999999993e-01 -4.063289999999999957e-01 3.648599999999999760e-02 -5.768569999999999531e-01 1.828210000000000113e-01 9.105499999999999705e-02 -2.085100000000000148e-02 2.752399999999999847e-01 -2.451669999999999960e-01 -1.054309999999999969e-01 3.438809999999999922e-01 2.105970000000000064e-01 -4.599369999999999847e-01 6.177099999999999952e-02 -3.855100000000000193e-02 3.849480000000000124e-01 -2.523800000000000002e-02 -1.468260000000000121e-01 1.802000000000000129e-02 -1.165270000000000056e-01 -2.961000000000000090e-03 2.673610000000000153e-01 7.306559999999999722e-01 1.806790000000000063e-01 5.020379999999999843e-01 -7.554099999999999704e-02 -1.566130000000000022e+00 -9.295489999999999586e-01 7.007809999999999873e-01 -6.843970000000000331e-01 2.739030000000000076e-01 -5.003239999999999910e-01 1.338537000000000088e+00 4.605100000000000166e-02 1.473900000000000036e-02 -4.616080000000000183e-01 8.783140000000000391e-01 7.359569999999999723e-01 -1.040520000000000056e-01 -3.121249999999999858e-01 -5.819450000000000456e-01 5.255809999999999649e-01 -6.749429999999999596e-01 -5.618140000000000356e-01 1.049709999999999949e-01 -3.437199999999999978e-02 -5.569250000000000034e-01 -2.773959999999999759e-01 -2.610049999999999870e-01 4.103680000000000105e-01 2.291999999999999871e-01 8.127370000000000427e-01 2.752859999999999752e-01 1.553999999999999999e-02 6.074239999999999640e-01 -2.446999999999999870e-02 6.867320000000000091e-01 -7.244909999999999961e-01 -6.703350000000000142e-01 1.750960000000000016e-01 1.460869999999999946e-01 -2.421389999999999931e-01 2.766339999999999910e-01 -1.302570000000000117e-01 4.127939999999999943e-01 1.727950000000000041e-01 -3.488539999999999974e-01 1.973139999999999894e-01 1.183099999999999950e-02 8.576799999999999979e-01 -5.828079999999999927e-01 4.807640000000000247e-01 -3.118879999999999986e-01 -1.340500000000000025e-01 -8.607499999999999873e-02 3.103710000000000080e-01 5.835439999999999516e-01 3.495659999999999878e-01 -1.376829999999999998e-01 1.762380000000000058e-01 2.644190000000000151e-01 -2.983600000000000141e-01 3.748499999999999749e-02 1.552759999999999974e-01 2.171750000000000069e-01 3.591579999999999773e-01 -1.017663999999999902e+00 -1.168803000000000036e+00 -5.864260000000000028e-01 -3.450730000000000186e-01 2.579000000000000181e-01 -1.227530000000000010e-01 1.539909999999999890e-01 1.386300000000000032e-02 -2.238749999999999907e-01 3.497750000000000026e-01 -3.482999999999999985e-02 2.867569999999999841e-01 -1.410299999999999887e-01 -6.031999999999999862e-02 -2.429399999999999893e-01 -1.662210000000000076e-01 -1.721860000000000057e-01 2.214220000000000077e-01 5.404699999999999782e-02
9.177899999999999947e-02 -1.580100000000000116e-01 -2.972299999999999942e-02 1.506200000000000074e-02 4.557599999999999846e-02 1.280119999999999869e-01 2.163199999999999845e-02 -1.904569999999999874e-01 -2.511369999999999991e-01 2.170980000000000132e-01 2.394010000000000027e-01 -1.612689999999999957e-01 -2.673050000000000148e-01 -6.912999999999999874e-03 6.871099999999999430e-02 8.296099999999999308e-02 3.170229999999999992e-01 1.382269999999999888e-01 7.023699999999999388e-02 2.310860000000000136e-01 1.946340000000000015e-01 3.822269999999999834e-01 6.852600000000000358e-02 2.452110000000000123e-01 1.068719999999999948e-01 -3.084339999999999860e-01 1.312010000000000121e-01 1.857930000000000137e-01 2.064600000000000116e-02 1.581110000000000015e-01 2.999399999999999844e-01 2.072269999999999945e-01 -2.798470000000000124e-01 -4.331789999999999807e-01 1.864190000000000014e-01 -3.412400000000000155e-02 -2.101540000000000075e-01 -1.431400000000000033e-02 6.502700000000000147e-02 -1.603420000000000123e-01 1.040500000000000036e-01 3.683919999999999972e-01 2.424799999999999872e-02 3.132499999999999729e-01 2.214099999999999957e-01 -2.261000000000000162e-02 1.490559999999999941e-01 -1.440460000000000074e-01 -5.088909999999999823e-01 -3.462799999999999906e-02 -1.892330000000000123e-01 -1.604150000000000020e-01 -2.944180000000000130e-01 -2.857250000000000068e-01 -3.362569999999999726e-01 1.680169999999999997e-01 -1.387359999999999982e-01 -3.314600000000000185e-02 1.409310000000000007e-01 2.469330000000000136e-01 -5.249100000000000293e-02 -2.441730000000000012e-01 1.551150000000000029e-01 -1.772599999999999870e-02 -1.315340000000000120e-01 -2.860000000000000129e-04 2.054599999999999829e-02 -1.021750000000000019e-01 -1.788770000000000082e-01 -1.934680000000000011e-01 -1.794890000000000096e-01 4.850200000000000344e-02 1.806460000000000010e-01 1.510819999999999941e-01 3.286029999999999784e-01 -2.929880000000000262e-01 -4.279089999999999838e-01 9.157800000000000662e-02 6.687429999999999763e-01 -6.106340000000000101e-01 3.056409999999999960e-01 -5.175389999999999713e-01 2.057039999999999980e-01 -9.110230000000000272e-01 6.008839999999999737e-01 -1.582890000000000130e-01 -1.451109999999999900e-01 -7.987769999999999593e-01 -2.575250000000000039e-01 1.640510000000000024e-01 6.890000000000000291e-03 1.444429999999999881e-01 2.091109999999999913e-01 2.064249999999999974e-01 -1.773299999999999876e-02 -4.261690000000000200e-01 -5.301919999999999966e-01 1.249829999999999969e-01 8.502899999999999348e-02 -4.271719999999999962e-01 -2.347289999999999932e-01 2.965849999999999875e-01 4.295000000000000207e-03 3.526679999999999815e-01 -6.026639999999999775e-01 -2.847250000000000059e-01 1.007239999999999941e-01 5.584639999999999604e-01 -1.235409999999999980e-01 -2.428579999999999905e-01 -3.012259999999999938e-01 -7.547099999999999642e-02 -1.400470000000000048e-01 -7.330250000000000377e-01 6.026000000000000106e-02 3.230899999999999883e-01 4.684300000000000130e-01 7.313469999999999693e-01 2.718690000000000273e-01 -3.290259999999999851e-01 2.900679999999999925e-01 5.021699999999999775e-02 1.499560000000000060e-01 -4.573459999999999748e-01 1.469310000000000060e-01 -3.008219999999999783e-01 2.971449999999999925e-01 -3.170990000000000197e-01 -1.551150000000000029e-01 6.210029999999999717e-01 -3.359960000000000169e-01 2.686390000000000167e-01 -6.383710000000000218e-01 3.569399999999999656e-02 -4.499330000000000274e-01 2.855050000000000088e-01 -5.730960000000000498e-01 6.551350000000000229e-01 3.923829999999999818e-01 9.629219999999999446e-01 5.219300000000000050e-01 3.417049999999999810e-01 -3.456300000000000344e-02 -1.999390000000000056e-01 6.824299999999999811e-02 6.264999999999999736e-02 2.870800000000000018e-01 8.108100000000000029e-02 7.318500000000000005e-02 -3.088369999999999727e-01 5.966500000000000276e-02 -9.960099999999999509e-02 1.381580000000000030e-01 1.274220000000000075e-01 -8.274499999999999911e-02 -1.419829999999999981e-01
-6.580099999999999838e-02 5.970899999999999819e-02 -2.544020000000000170e-01 -2.394100000000000047e-02 -8.314699999999999869e-02 1.108259999999999940e-01 -5.716299999999999853e-02 1.802809999999999968e-01 -1.416709999999999914e-01 1.275910000000000100e-01 6.781199999999999728e-02 -1.438700000000000048e-02 8.304300000000000570e-02 9.206300000000000594e-02 -2.158950000000000036e-01 -1.885390000000000121e-01 1.410909999999999942e-01 1.823940000000000006e-01 2.585120000000000196e-01 3.304770000000000207e-01 -3.519720000000000071e-01 1.385049999999999892e-01 4.233300000000000257e-02 -3.805540000000000034e-01 2.243500000000000008e-02 2.911039999999999739e-01 2.778000000000000087e-03 6.516099999999999670e-02 -6.108600000000000141e-02 2.797919999999999852e-01 -1.332129999999999981e-01 1.986960000000000115e-01 -1.103200000000000014e-01 -1.919799999999999979e-02 1.887899999999999995e-02 -6.248599999999999988e-02 -2.102159999999999862e-01 1.278340000000000032e-01 3.543200000000000238e-01 1.743149999999999977e-01 1.469999999999999953e-03 -9.218999999999999417e-02 5.455800000000000233e-02 1.493919999999999970e-01 6.478000000000000425e-02 1.402239999999999875e-01 3.781400000000000039e-02 -2.462100000000000052e-02 9.432400000000000506e-02 2.408389999999999975e-01 -4.385399999999999715e-02 2.808000000000000079e-02 -5.921900000000000081e-02 -9.269399999999999862e-02 -2.800520000000000231e-01 1.315810000000000035e-01 -2.076999999999999853e-03 -8.748799999999999633e-02 -1.304999999999999953e-03 3.231900000000000051e-02 -7.466000000000000414e-02 -1.191900000000000043e-01 1.325850000000000084e-01 8.467600000000000127e-02 2.996480000000000254e-01 -1.264659999999999951e-01 6.395099999999999396e-02 -2.719380000000000130e-01 1.678600000000000092e-01 1.274300000000000085e-02 9.070000000000000371e-04 2.069809999999999983e-01 -6.335579999999999545e-01 -8.358550000000000146e-01 -4.870929999999999982e-01 -4.605079999999999729e-01 5.928109999999999769e-01 5.866249999999999520e-01 8.058700000000000585e-02 -2.053020000000000123e-01 1.903090000000000059e-01 4.580710000000000059e-01 3.355099999999999749e-02 -2.633909999999999862e-01 -4.069600000000000301e-02 -2.044950000000000101e-01 -2.519790000000000085e-01 -5.049919999999999964e-01 -5.282019999999999493e-01 4.741719999999999824e-01 -9.400999999999999635e-02 1.482489999999999919e-01 -7.577999999999999667e-03 1.578890000000000016e-01 3.043440000000000034e-01 -1.002630000000000049e-01 4.723589999999999733e-01 -2.016209999999999947e-01 1.601770000000000138e-01 -2.500499999999999945e-02 -3.651179999999999981e-01 -2.598659999999999859e-01 3.681399999999999950e-02 -2.166430000000000022e-01 4.839030000000000276e-01 1.043739999999999946e-01 1.812499999999999944e-01 3.149899999999999922e-02 1.283499999999999919e-01 -4.754659999999999997e-01 -2.164429999999999965e-01 -1.186920000000000058e-01 5.864599999999999674e-02 5.605409999999999560e-01 9.961499999999999522e-02 -7.820179999999999909e-01 -2.994379999999999820e-01 7.790300000000000002e-02 -3.048409999999999731e-01 -2.736399999999999944e-02 -1.299109999999999987e-01 3.965350000000000263e-01 -2.270310000000000106e-01 -1.606700000000000142e-02 3.128179999999999850e-01 3.599789999999999934e-01 1.524669999999999914e-01 -2.727390000000000092e-01 1.554299999999999952e-02 1.797120000000000106e-01 2.277250000000000107e-01 1.979819999999999913e-01 4.469200000000000256e-02 3.665849999999999942e-01 1.396179999999999921e-01 -4.515609999999999902e-01 -1.083059999999999995e-01 -9.337720000000000464e-01 4.893219999999999792e-01 1.723790000000000044e-01 7.755199999999999871e-01 2.448150000000000048e-01 -6.021100000000000063e-02 -1.060190000000000021e-01 1.444850000000000023e-01 4.704499999999999654e-02 -2.701939999999999897e-01 -4.967779999999999974e-01 -1.882500000000000007e-01 1.846399999999999986e-01 -3.499100000000000127e-02 1.244060000000000027e-01 -1.951720000000000121e-01 -7.253600000000000325e-02 -3.332199999999999745e-02 -1.359499999999999875e-01
-8.204100000000000281e-02 7.530900000000000094e-02 2.605819999999999803e-01 9.785499999999999754e-02 -1.128620000000000040e-01 8.597000000000000475e-03 -2.443740000000000079e-01 -1.105710000000000026e-01 1.297300000000000016e-02 5.863800000000000262e-02 -1.542679999999999885e-01 2.814799999999999941e-02 1.312609999999999888e-01 -1.294299999999999964e-02 -4.010500000000000176e-02 1.899710000000000010e-01 -1.625159999999999938e-01 5.618999999999999689e-02 -3.170599999999999807e-02 -1.664019999999999944e-01 3.290660000000000251e-01 1.098660000000000053e-01 1.387579999999999925e-01 -6.092100000000000293e-02 4.296500000000000319e-02 2.672199999999999923e-02 6.047799999999999704e-02 -3.432700000000000334e-02 -1.540920000000000067e-01 8.624900000000000622e-02 7.100700000000000067e-02 1.285850000000000048e-01 -2.413089999999999957e-01 7.053099999999999647e-02 6.511100000000000221e-02 1.694899999999999879e-02 -2.292019999999999891e-01 -2.166150000000000020e-01 -9.318020000000000191e-01 -1.784900000000000098e-01 -7.776900000000000479e-02 -3.828230000000000244e-01 -1.147529999999999939e-01 -1.158079999999999943e-01 1.520219999999999905e-01 -6.614599999999999647e-02 -3.066110000000000224e-01 3.710100000000000203e-02 -8.129699999999999427e-02 -3.118800000000000044e-02 -6.854499999999999482e-02 -3.288999999999999823e-03 6.566500000000000115e-02 2.175699999999999856e-02 -4.177629999999999955e-01 1.539069999999999883e-01 2.592880000000000185e-01 -1.397889999999999966e-01 -6.332500000000000628e-02 -2.099939999999999862e-01 1.465499999999999962e-02 4.893000000000000127e-02 -1.870300000000000087e-02 7.713799999999999824e-02 1.405799999999999932e-02 -8.510500000000000009e-02 1.732140000000000069e-01 -1.809280000000000055e-01 1.508480000000000099e-01 1.379019999999999968e-01 -8.262700000000000600e-02 2.833769999999999900e-01 5.534480000000000510e-01 6.457920000000000327e-01 3.639400000000000274e-02 7.340719999999999468e-01 8.249599999999999989e-02 -8.379860000000000086e-01 -4.418420000000000125e-01 4.928000000000000158e-01 -4.800539999999999807e-01 1.162760000000000044e-01 1.203700000000000082e-02 8.876460000000000461e-01 -1.764840000000000020e-01 8.197500000000000620e-02 1.346050000000000024e-01 6.371649999999999814e-01 -1.315000000000000023e-02 -5.203000000000000159e-03 2.112980000000000136e-01 2.724999999999999992e-02 3.016800000000000037e-02 -2.290359999999999896e-01 -4.275129999999999764e-01 7.577999999999999667e-03 -4.155360000000000165e-01 3.634640000000000093e-01 -3.221620000000000039e-01 2.263880000000000059e-01 -3.168639999999999790e-01 -4.242969999999999797e-01 6.897100000000000453e-02 -2.989499999999999935e-01 5.102790000000000381e-01 -2.103000000000000008e-02 2.626890000000000058e-01 -3.936680000000000179e-01 2.182189999999999963e-01 4.554139999999999855e-01 4.148530000000000273e-01 -2.338109999999999911e-01 -7.673099999999999365e-02 -5.450300000000000145e-01 -3.443880000000000274e-01 2.126899999999999971e-02 4.152299999999999741e-02 -2.634940000000000060e-01 -6.499850000000000350e-01 3.221120000000000094e-01 3.778299999999999714e-02 -2.423470000000000069e-01 1.295489999999999975e-01 1.700119999999999965e-01 1.621529999999999916e-01 -7.153900000000000536e-02 -3.536900000000000044e-01 8.254329999999999723e-01 8.072989999999999888e-01 1.004170000000000063e-01 -3.857070000000000221e-01 -4.346530000000000116e-01 -3.427509999999999724e-01 -8.089999999999999969e-03 4.508809999999999762e-01 6.573400000000000076e-02 4.835799999999999821e-02 -4.400700000000000167e-01 -9.446699999999999542e-02 -4.210240000000000093e-01 3.200299999999999673e-02 -1.089600000000000013e-01 1.998780000000000001e-01 2.375359999999999971e-01 2.019769999999999899e-01 1.642079999999999929e-01 -4.964999999999999969e-02 1.077200000000000032e-02 1.296500000000000083e-02 1.504630000000000134e-01 5.497500000000000303e-02 9.001900000000000179e-02 8.383100000000000274e-02 6.615400000000000447e-02 1.236420000000000019e-01 3.276999999999999965e-03
-1.022789999999999949e-01 1.233069999999999999e-01 3.547800000000000259e-02 -1.297989999999999977e-01 -8.947399999999999798e-02 -1.734769999999999923e-01 -1.542910000000000115e-01 -1.215839999999999976e-01 -4.357269999999999754e-01 2.328739999999999977e-01 1.188179999999999931e-01 -2.827899999999999858e-02 -3.692289999999999739e-01 1.769600000000000062e-01 -2.081449999999999967e-01 8.397899999999999809e-02 1.320610000000000117e-01 -9.023299999999999377e-02 -3.709900000000000003e-02 4.425799999999999873e-02 5.339599999999999902e-01 9.789499999999999591e-02 -1.913469999999999893e-01 4.107120000000000215e-01 4.037500000000000117e-02 -9.405399999999999872e-02 5.097200000000000342e-02 6.530700000000000394e-02 1.214049999999999990e-01 -1.538100000000000057e-02 -1.467870000000000008e-01 1.360000000000000098e-03 5.801400000000000307e-02 -8.293200000000000571e-02 -4.396800000000000014e-02 4.013900000000000107e-02 -2.834079999999999933e-01 3.877410000000000023e-01 5.286619999999999653e-01 -6.916799999999999338e-02 9.604100000000000137e-02 3.655300000000000216e-01 2.651850000000000041e-01 3.536030000000000006e-01 7.185600000000000320e-02 -2.522900000000000142e-01 2.185350000000000070e-01 -8.856400000000000383e-02 -3.456259999999999888e-01 -8.970799999999999608e-02 -1.576470000000000093e-01 1.700790000000000080e-01 2.750509999999999899e-01 1.648310000000000053e-01 -1.594160000000000021e-01 1.580920000000000103e-01 1.321299999999999975e-01 -1.173860000000000042e-01 -3.107790000000000274e-01 4.465800000000000325e-02 -6.412400000000000044e-02 -2.724449999999999927e-01 -1.974289999999999934e-01 3.783000000000000251e-01 -1.107650000000000023e-01 -1.003119999999999984e-01 -1.436230000000000007e-01 -3.266060000000000074e-01 5.036299999999999805e-02 -2.399310000000000054e-01 7.295799999999999508e-02 -1.164359999999999978e-01 3.556600000000000039e-02 3.049089999999999856e-01 3.462129999999999930e-01 -6.534900000000000431e-02 -2.841859999999999942e-01 3.474700000000000011e-01 -3.147300000000000098e-02 4.147499999999999798e-02 5.775449999999999751e-01 -6.740869999999999918e-01 -3.796599999999999975e-02 -9.556949999999999612e-01 -9.236800000000000566e-02 5.497180000000000399e-01 2.478849999999999942e-01 2.925550000000000095e-01 5.613669999999999494e-01 2.149369999999999892e-01 -2.335710000000000008e-01 -3.125720000000000165e-01 -1.400200000000000056e-01 -1.022880000000000039e-01 -3.198889999999999789e-01 -6.565500000000000502e-02 2.818720000000000114e-01 1.641970000000000096e-01 4.165349999999999886e-01 -6.163480000000000070e-01 4.691850000000000187e-01 1.156029999999999974e-01 -2.039459999999999884e-01 9.806099999999999539e-02 -1.450380000000000003e-01 1.495970000000000077e-01 -1.467880000000000018e-01 -1.979930000000000023e-01 4.993420000000000081e-01 -9.289899999999999547e-02 -7.941399999999999848e-02 4.093510000000000204e-01 2.308870000000000089e-01 -1.613120000000000109e-01 -6.002680000000000238e-01 2.256990000000000107e-01 4.002740000000000187e-01 1.688800000000000023e-01 2.483650000000000024e-01 -4.408030000000000004e-01 7.622609999999999664e-01 -3.594269999999999965e-01 -4.436939999999999773e-01 2.175870000000000026e-01 -3.007699999999999818e-01 -2.386020000000000085e-01 5.556569999999999565e-01 -5.287290000000000045e-01 -3.862800000000000122e-01 2.230880000000000085e-01 -1.001029999999999975e-01 2.087970000000000104e-01 -3.515880000000000116e-01 2.503279999999999950e-01 -8.320959999999999468e-01 5.584609999999999852e-01 -7.964980000000000393e-01 3.605059999999999931e-01 2.488940000000000041e-01 -6.910509999999999708e-01 -2.195580000000000032e-01 2.150080000000000047e-01 4.316989999999999994e-01 -1.082369999999999999e-01 -6.859999999999999432e-02 -8.361999999999999988e-02 4.964699999999999669e-02 1.099900000000000010e-02 -3.148569999999999980e-01 8.004699999999999316e-02 -2.068329999999999891e-01 1.406630000000000102e-01 6.702999999999999757e-03 -1.900599999999999859e-02 2.333999999999999964e-02 1.665600000000000136e-01
1.047359999999999958e-01 1.279339999999999922e-01 -2.055730000000000057e-01 -7.936400000000000399e-02 -1.642889999999999906e-01 6.711499999999999411e-02 -2.684019999999999739e-01 -5.962699999999999945e-02 -2.499750000000000028e-01 1.101450000000000068e-01 1.410210000000000075e-01 5.051599999999999840e-02 -2.113680000000000003e-01 2.074239999999999973e-01 -1.460450000000000081e-01 -3.018390000000000239e-01 4.306400000000000228e-01 3.439949999999999952e-01 -2.083029999999999882e-01 -6.051000000000000129e-02 -6.686100000000000376e-01 -2.355200000000000071e-01 -1.516669999999999963e-01 -3.224910000000000276e-01 2.912500000000000158e-02 9.393600000000000561e-02 -2.211180000000000090e-01 2.920999999999999985e-02 -1.448400000000000035e-02 1.074569999999999970e-01 9.101099999999999468e-02 -7.257900000000000462e-02 -1.656960000000000099e-01 1.117640000000000022e-01 -2.039499999999999993e-02 -2.680290000000000172e-01 -1.205940000000000067e-01 1.912679999999999936e-01 2.499309999999999865e-01 -3.480899999999999966e-02 -1.026259999999999950e-01 -4.035799999999999804e-02 6.158000000000000279e-02 6.773780000000000356e-01 -1.831710000000000005e-01 -1.084040000000000004e-01 2.429060000000000108e-01 2.036499999999999977e-01 -4.440000000000000045e-04 -1.182789999999999953e-01 1.126579999999999943e-01 2.418199999999999864e-02 2.324180000000000135e-01 1.580910000000000093e-01 -1.305159999999999931e-01 -6.628199999999999370e-02 -3.230790000000000051e-01 -6.302399999999999669e-02 -1.184130000000000044e-01 -4.049999999999999781e-04 1.727779999999999871e-01 5.183800000000000213e-02 -2.927230000000000110e-01 2.101409999999999945e-01 2.726919999999999900e-01 -3.736309999999999909e-01 2.401040000000000119e-01 1.507200000000000033e-02 -7.333599999999999841e-02 -2.085100000000000148e-02 1.134069999999999939e-01 1.257340000000000124e-01 -4.537260000000000182e-01 -5.670279999999999765e-01 -7.381900000000000128e-01 -1.047529999999999989e-01 4.382900000000000129e-01 5.845460000000000100e-01 2.021590000000000054e-01 -1.560120000000000118e-01 3.819159999999999777e-01 6.017019999999999591e-01 -3.261140000000000150e-01 2.384429999999999883e-01 -5.119529999999999914e-01 8.430100000000000093e-02 6.226199999999999513e-01 1.852169999999999928e-01 3.346359999999999890e-01 -2.464109999999999912e-01 1.919700000000000017e-01 -4.150719999999999965e-01 3.854179999999999828e-01 9.930790000000000450e-01 3.557400000000000007e-01 6.193089999999999984e-01 -4.893999999999999739e-02 -2.512159999999999949e-01 -1.856000000000000011e-03 -8.757800000000000307e-02 -4.800809999999999800e-01 -6.878499999999999892e-02 2.958140000000000214e-01 -3.109509999999999774e-01 -6.163929999999999687e-01 6.943780000000000507e-01 -5.787799999999999889e-02 8.528769999999999962e-01 -6.851979999999999738e-01 -1.387909999999999977e-01 -5.289789999999999770e-01 -1.587069999999999870e-01 -6.059900000000000009e-02 6.477509999999999657e-01 -1.271639999999999993e-01 -7.531050000000000244e-01 3.104300000000000115e-02 3.851849999999999996e-01 1.326690000000000091e-01 -4.892000000000000237e-01 -2.426989999999999981e-01 2.154830000000000079e-01 2.336860000000000048e-01 4.156130000000000102e-01 3.708810000000000162e-01 -1.552499999999999991e-01 -3.409019999999999828e-01 -8.136520000000000419e-01 -1.270899999999999981e-02 -4.736070000000000002e-01 1.776560000000000084e-01 5.896209999999999507e-01 3.756340000000000234e-01 6.719899999999999762e-01 -4.127939999999999943e-01 3.516940000000000066e-01 -5.577900000000000219e-02 9.587400000000000089e-02 -4.004940000000000166e-01 -4.445720000000000227e-01 -5.230310000000000237e-01 -2.178670000000000051e-01 -9.767900000000000194e-02 5.851159999999999695e-01 -3.949880000000000058e-01 2.053500000000000048e-01 1.737390000000000045e-01 2.277289999999999870e-01 1.584899999999999851e-02 -5.657899999999999735e-02 -4.082899999999999724e-02 1.098760000000000014e-01 2.263999999999999953e-03 -3.210999999999999965e-02 -3.297599999999999837e-02 -7.895199999999999441e-02