1.085016969242227347e+01 1.295296180610537640e+00 -2.934665916898397064e+00 1.295296180610537640e+00 7.115461306196097624e+00 4.553829730168848400e+00 -2.934665916898397064e+00 4.553829730168848400e+00 4.888507064634068477e+00
-9.344289810571144717e-01 -2.988739333071947168e+00 -1.232405634393027638e+00 -2.988739333071947168e+00 -9.397840176657340505e-01 -2.927156412072821290e+00 -1.232405634393027638e+00 -2.927156412072821290e+00 5.334600294492349626e+00
6.942605705899258517e+00 1.076960129860956350e+00 -3.411282855425809557e-01 1.076960129860956350e+00 4.690762997680656632e+00 2.689374106289845301e+00 -3.411282855425809557e-01 2.689374106289845301e+00 2.584359347680111885e+00
6.258481098787834540e+00 4.572952192291024343e-01 2.374709664452652191e-01 4.572952192291024343e-01 7.441190748095520391e+00 -1.744241278802245887e+00 2.374709664452652191e-01 -1.744241278802245887e+00 6.536812239914217670e+00
4.987008604298900138e+00 -2.516680402448615017e-01 5.647072907392061691e-02 -2.516680402448615017e-01 7.067739212511841451e+00 -4.048283140381381262e-01 5.647072907392061691e-02 -4.048283140381381262e-01 6.626851576380079045e+00
7.598921483366385843e+00 1.152061404903470088e+00 4.471517836064961005e-01 1.152061404903470088e+00 -1.671761480983254167e+00 -2.392568088863723297e+00 4.471517836064961005e-01 -2.392568088863723297e+00 8.229632713700206770e-01
1.822505761515897715e+00 2.207794418719328355e+00 -1.448039259691282221e-01 2.207794418719328355e+00 4.294608597591131449e+00 4.710869292109997275e+00 -1.448039259691282221e-01 4.710869292109997275e+00 -4.308002415899434556e-01
1.923778221286351231e+00 -1.245481886576866315e-01 -2.416796516124350092e+00 -1.245481886576866315e-01 3.870495924975208446e+00 2.126883551635137537e-01 -2.416796516124350092e+00 2.126883551635137537e-01 6.997594459725677396e+00
1.093902593940483214e+01 -1.295862818205170353e+00 8.828898670925272585e-01 -1.295862818205170353e+00 1.103179883525579186e+01 4.103228306700520633e+00 8.828898670925272585e-01 4.103228306700520633e+00 9.189790777625711726e+00
3.864468395397134159e+00 -3.255488650835502429e-01 -1.894126262762808599e+00 -3.255488650835502429e-01 6.808362410265268672e+00 -1.613017974744047400e+00 -1.894126262762808599e+00 -1.613017974744047400e+00 3.431600860604793191e+00
2.241493788633106554e+00 1.984937720786191129e+00 8.483312006066677791e-01 1.984937720786191129e+00 2.110008959531231465e+00 2.010349237530117517e+00 8.483312006066677791e-01 2.010349237530117517e+00 3.421388930327890598e+00
4.840809878096828278e+00 1.319979163304221714e+00 1.893316780484761264e+00 1.319979163304221714e+00 6.273275944115834335e+00 1.858764340785656222e+00 1.893316780484761264e+00 1.858764340785656222e+00 3.571504305398359058e+00
7.498944195240807353e+00 -9.698593976885631074e-01 -8.803929256040894380e-01 -9.698593976885631074e-01 9.229635986065893860e+00 -9.992498311684291368e-01 -8.803929256040894380e-01 -9.992498311684291368e-01 9.553814958063519214e+00
7.402391639830044667e+00 1.546858365480577591e-01 -3.271068071294533031e+00 1.546858365480577591e-01 6.922848111528153936e+00 -1.218613301732454746e+00 -3.271068071294533031e+00 -1.218613301732454746e+00 7.086992437155855029e+00
3.259299444329078810e+00 -6.931721282652901772e-01 -1.281553662243998470e+00 -6.931721282652901772e-01 3.551709350306729185e+00 5.498694805826016996e+00 -1.281553662243998470e+00 5.498694805826016996e+00 5.938990897216129383e+00
6.605263306703236914e+00 1.130647485255745543e+00 1.520525284297028046e+00 1.130647485255745543e+00 4.064914887801872823e+00 -9.232643524068178120e-01 1.520525284297028046e+00 -9.232643524068178120e-01 4.404909898155188408e+00
2.916396524561548187e+00 -1.614861103623293159e+00 -2.331402362577128962e+00 -1.614861103623293159e+00 4.996560495179855899e+00 5.958412245102506083e-02 -2.331402362577128962e+00 5.958412245102506083e-02 2.288867182259127997e+00
6.901720624071123744e+00 9.045341778501574392e-01 -4.217527204360779769e-01 9.045341778501574392e-01 7.635341959091754838e+00 8.126454857182965341e-01 -4.217527204360779769e-01 8.126454857182965341e-01 5.547861514037250252e+00
8.737240369903316761e+00 -3.720019396272995493e+00 4.749481596772846537e-01 -3.720019396272995493e+00 5.799678997164213534e+00 -1.555077723996133310e+00 4.749481596772846537e-01 -1.555077723996133310e+00 8.208984688823250053e+00
3.208258473304828051e+00 -7.515793880197696453e-01 -1.241496743054172625e-01 -7.515793880197696453e-01 6.304553093982225853e+00 -2.002161012948333041e-01 -1.241496743054172625e-01 -2.002161012948333041e-01 7.233278338372485017e+00
1.175966039252878126e+00 -1.066916322826417352e+00 2.027117974259202260e+00 -1.066916322826417352e+00 3.020190832967456274e+00 4.645245186507389046e-01 2.027117974259202260e+00 4.645245186507389046e-01 1.212417648912017087e+00
7.860645784219294718e+00 -2.655873993552201551e+00 -4.145227983357659518e+00 -2.655873993552201551e+00 4.001345621828154897e+00 -2.053612951898361239e+00 -4.145227983357659518e+00 -2.053612951898361239e+00 4.622635723802857477e+00
4.949155967620063379e+00 -2.628656708649554030e+00 3.580744856941604937e+00 -2.628656708649554030e+00 7.782860764085717697e+00 2.468397897956479792e+00 3.580744856941604937e+00 2.468397897956479792e+00 7.637701911271598476e+00
5.646705526973562428e+00 -8.527771263491729092e-01 2.110519556045076683e+00 -8.527771263491729092e-01 6.347231490395572884e+00 -2.866258437616657773e+00 2.110519556045076683e+00 -2.866258437616657773e+00 7.397036603221424755e+00
6.299191830586851282e+00 3.588248134980426829e-01 -6.341951175228004445e+00 3.588248134980426829e-01 8.066721291849837883e+00 -1.748207741964676876e+00 -6.341951175228004445e+00 -1.748207741964676876e+00 3.686699860351223546e+00
3.075484699344831263e+00 -1.544093672161708897e+00 2.468217321140607545e+00 -1.544093672161708897e+00 3.934015376654893537e+00 2.298736639264549186e+00 2.468217321140607545e+00 2.298736639264549186e+00 4.905138812054561370e+00
5.392210525542290966e+00 -9.184261390987975560e-01 -1.360459503993333819e+00 -9.184261390987975560e-01 4.422382261787498159e+00 2.170782398252310286e-01 -1.360459503993333819e+00 2.170782398252310286e-01 5.200693245343087412e+00
5.970423716751375842e+00 2.458889594582802651e+00 8.599939721973010043e-01 2.458889594582802651e+00 9.625964736184537074e+00 -1.376057604812627178e-01 8.599939721973010043e-01 -1.376057604812627178e-01 3.607557400705228901e+00
6.377269509697876870e+00 1.225904869021633425e+00 -7.406389236926247399e-01 1.225904869021633425e+00 5.409390230197153038e+00 -1.415846772172022205e-01 -7.406389236926247399e-01 -1.415846772172022205e-01 8.403665176693591476e+00
6.259601920403591535e+00 4.232969635511217299e-01 -7.192997254859507805e-01 4.232969635511217299e-01 5.904457137877286321e+00 -2.401453713561979786e+00 -7.192997254859507805e-01 -2.401453713561979786e+00 2.684498532261299530e+00
7.406189979750112506e+00 6.777919649823941350e-01 -3.288148147361328100e+00 6.777919649823941350e-01 4.069989719006553486e+00 -6.474176991953630722e-01 -3.288148147361328100e+00 -6.474176991953630722e-01 3.089420248100750999e-01
7.425106957909398453e+00 1.662309218690364965e+00 -3.551447825263052138e-01 1.662309218690364965e+00 5.835233949530746145e+00 1.451638342435214835e+00 -3.551447825263052138e-01 1.451638342435214835e+00 6.740671011460262818e+00
8.195428974059336014e+00 -4.178398076397330740e+00 -1.947850978878122863e+00 -4.178398076397330740e+00 1.016215334358946798e+01 9.437380272546566085e-01 -1.947850978878122863e+00 9.437380272546566085e-01 8.274938814123830255e+00
3.622233937084898603e+00 2.917772644434228013e+00 3.912850528477337386e-01 2.917772644434228013e+00 3.002849231856984602e+00 -3.261839973324795472e-01 3.912850528477337386e-01 -3.261839973324795472e-01 8.262921115688207863e+00
3.899556338757101503e+00 -1.246789511795250105e+00 1.963884954770210856e+00 -1.246789511795250105e+00 6.420663986587959116e+00 -4.520771719290753166e-01 1.963884954770210856e+00 -4.520771719290753166e-01 2.421827759821751247e+00
1.766813380786253163e+00 -3.254305561352202947e+00 -3.047215087480723117e+00 -3.254305561352202947e+00 5.130797564027091084e+00 2.264744610373322864e+00 -3.047215087480723117e+00 2.264744610373322864e+00 3.452547771245952024e+00
6.078601683032246683e+00 7.717105895961271500e-01 2.185708006102148993e+00 7.717105895961271500e-01 6.343152945071566684e+00 -1.593789657247050018e+00 2.185708006102148993e+00 -1.593789657247050018e+00 5.311860069265978090e+00
8.280368572173500752e+00 1.775916943020906524e+00 5.239280642858918924e-01 1.775916943020906524e+00 9.181652367337960641e+00 4.118023152028520983e-01 5.239280642858918924e-01 4.118023152028520983e-01 6.913489251036577521e+00
6.193168332522936304e+00 1.309387399035312427e+00 2.290529734322502176e+00 1.309387399035312427e+00 1.096881488723696840e+01 3.497990860978168914e+00 2.290529734322502176e+00 3.497990860978168914e+00 4.433746147613930155e+00
5.193451492347942455e+00 -4.463740579408954190e+00 -2.775590195688621975e-01 -4.463740579408954190e+00 6.320941996719303901e+00 1.233009632708185865e+00 -2.775590195688621975e-01 1.233009632708185865e+00 3.797972539648936774e+00
3.731096849908733137e+00 4.529302417144019377e-01 1.403629816560264087e+00 4.529302417144019377e-01 4.132749502702225186e+00 -1.323814863944814402e+00 1.403629816560264087e+00 -1.323814863944814402e+00 3.091749066346825003e+00
1.046631942295906548e+01 -4.750104275448267521e-01 -2.047155774034246534e+00 -4.750104275448267521e-01 9.369327720109819069e+00 -8.847765834790525252e-01 -2.047155774034246534e+00 -8.847765834790525252e-01 1.290018978836345553e+01
8.460341389730400508e+00 1.498015450180562702e+00 2.373563935689877891e+00 1.498015450180562702e+00 5.072938261506982904e+00 5.642153745856235414e-01 2.373563935689877891e+00 5.642153745856235414e-01 5.908292838517878565e+00
4.482302630723250303e+00 -3.290701129930553748e+00 -1.019150641634880783e+00 -3.290701129930553748e+00 3.460648820813178261e+00 3.435156355841446629e+00 -1.019150641634880783e+00 3.435156355841446629e+00 3.933710264103937426e+00
1.403225075421240753e+00 2.356832559681318440e+00 -6.608115175036664013e-01 2.356832559681318440e+00 5.139465251188950923e+00 1.506434065872253480e+00 -6.608115175036664013e-01 1.506434065872253480e+00 2.045194336206670904e+00
1.237672250629737469e+01 2.705239958939569700e+00 -2.345836054273385596e+00 2.705239958939569700e+00 5.483974681939066897e+00 -1.328665530826343089e+00 -2.345836054273385596e+00 -1.328665530826343089e+00 2.158503174773010347e+00
6.368813533285661244e+00 -1.040060191555514324e+00 -2.051408669387371653e+00 -1.040060191555514324e+00 5.955622644636620500e+00 5.409085117646196261e-01 -2.051408669387371653e+00 5.409085117646196261e-01 7.498477186234241643e+00
6.248094818481813029e+00 2.899173232399406164e+00 -5.092702082664841701e-01 2.899173232399406164e+00 5.796048780486509067e+00 2.899472118163608503e+00 -5.092702082664841701e-01 2.899472118163608503e+00 2.651035780244180629e+00
3.447522754335305528e+00 3.594088860955874765e+00 -6.396093086055850696e-01 3.594088860955874765e+00 7.594214032580204332e+00 -1.714944247123692866e+00 -6.396093086055850696e-01 -1.714944247123692866e+00 1.056763547023679806e+01
8.117955293263470651e+00 -3.091624530611741140e+00 -3.936792523547270495e+00 -3.091624530611741140e+00 3.763258203494222354e+00 -2.136784142574329748e-01 -3.936792523547270495e+00 -2.136784142574329748e-01 2.754033059945550921e+00
3.777567359455394236e+00 1.716575665253295524e+00 -1.446613325524568339e+00 1.716575665253295524e+00 7.039594136382816281e+00 -3.278179061767839908e+00 -1.446613325524568339e+00 -3.278179061767839908e+00 6.360625308703877323e+00
9.777991734788548328e+00 -6.407986248756389336e-02 2.151080844961993144e+00 -6.407986248756389336e-02 9.624694471686678909e+00 1.633441835297852585e+00 2.151080844961993144e+00 1.633441835297852585e+00 8.724083169491672507e+00
5.139079190410189568e+00 1.034642887079352536e-01 -3.603279598205086920e+00 1.034642887079352536e-01 8.390738367391854524e+00 5.070285650349689588e-01 -3.603279598205086920e+00 5.070285650349689588e-01 5.397521974643630038e+00
6.723852460437145240e+00 2.287273124850050632e+00 1.923578964110216560e+00 2.287273124850050632e+00 1.412341091229402545e+00 -1.822007618575560706e+00 1.923578964110216560e+00 -1.822007618575560706e+00 6.981572937407098500e+00
7.841853341795093080e+00 6.744232733483670472e-01 1.477467053891673432e+00 6.744232733483670472e-01 1.118205119963485217e+01 8.468865860796912504e-01 1.477467053891673432e+00 8.468865860796912504e-01 6.183143205848660173e+00
7.797574661185912248e+00 2.334030066587405194e+00 -3.010800838542109226e+00 2.334030066587405194e+00 8.467066319424947807e+00 1.951867256334587797e+00 -3.010800838542109226e+00 1.951867256334587797e+00 1.144931111391225365e+01
7.808378136204465747e+00 -1.351281220317630094e+00 3.832730463310931590e+00 -1.351281220317630094e+00 5.993923609961759880e+00 -6.718329300586161956e+00 3.832730463310931590e+00 -6.718329300586161956e+00 8.260940997500370031e+00
6.597865884039237017e+00 -4.213398844742738625e+00 -1.695703476053187497e+00 -4.213398844742738625e+00 5.372347075796364280e+00 5.684165876086883173e+00 -1.695703476053187497e+00 5.684165876086883173e+00 -4.211300417606570479e-01
6.569646086469162150e+00 1.732647001865909031e+00 -5.495743308904521562e+00 1.732647001865909031e+00 5.763520046482521586e+00 2.942748286105360211e+00 -5.495743308904521562e+00 2.942748286105360211e+00 2.272907927808090811e+00
2.417120309035569292e+00 3.744914089716322447e-01 7.521964625871118137e+00 3.744914089716322447e-01 1.024312025175444596e+01 -5.705554888587591300e+00 7.521964625871118137e+00 -5.705554888587591300e+00 1.008231348382700077e+01
1.491139209567889878e+01 -1.037538342920059753e+00 -5.008459884667149531e+00 -1.037538342920059753e+00 8.794732292004928453e+00 6.392811569436382513e+00 -5.008459884667149531e+00 6.392811569436382513e+00 1.397897436674339389e+01
8.220392162156960225e+00 3.523495779523408533e+00 2.348550933298220400e+00 3.523495779523408533e+00 2.345263189891998223e+00 -1.907912368636627054e+00 2.348550933298220400e+00 -1.907912368636627054e+00 5.922682942706856579e+00
-4.191798121492388063e+00 -2.315237624163202668e+00 2.030947448113040732e+00 -2.315237624163202668e+00 4.025231575817300289e+00 -2.147070794292282869e+00 2.030947448113040732e+00 -2.147070794292282869e+00 -2.489637467575086305e+00
5.832263772248988509e+00 1.315713814377588609e+00 -6.244159489253153783e-01 1.315713814377588609e+00 5.199983391653106857e+00 1.214111334909161899e+00 -6.244159489253153783e-01 1.214111334909161899e+00 4.226232252243163678e+00
1.050784586382288310e+01 1.759372370614973313e+00 3.775294582290108281e+00 1.759372370614973313e+00 1.700287636461635898e+01 2.119274418221494205e+00 3.775294582290108281e+00 2.119274418221494205e+00 1.580306173209486076e+01
1.457642210223623280e+01 -1.772492210306091831e+00 8.359585753260546648e-01 -1.772492210306091831e+00 1.614945165244474978e+01 4.210490935328523032e-01 8.359585753260546648e-01 4.210490935328523032e-01 6.537385104295605487e+00
9.906307129432530445e+00 4.044136100403077805e+00 -3.805133344416276930e+00 4.044136100403077805e+00 5.706607215549052370e+00 1.538159544384947619e+00 -3.805133344416276930e+00 1.538159544384947619e+00 4.665301666642696077e+00
-2.701416711872485443e+00 -1.395640849154614394e+00 2.151491812887771360e+00 -1.395640849154614394e+00 5.236123661974534826e+00 -2.314303606150071690e+00 2.151491812887771360e+00 -2.314303606150071690e+00 6.333999568542879821e+00
8.919193305648056125e+00 9.922633764302066783e-01 6.758554343018351174e-02 9.922633764302066783e-01 1.274529846785250831e+00 -1.901529912213562712e+00 6.758554343018351174e-02 -1.901529912213562712e+00 4.119878734481275728e+00
1.011079480644075268e+01 1.882918046605232432e+00 1.444365455506299023e-01 1.882918046605232432e+00 9.353511681754126172e+00 -4.942698789755949562e+00 1.444365455506299023e-01 -4.942698789755949562e+00 5.552662366624745438e+00
6.825977989992925821e+00 -4.082100819243489553e+00 3.273116684136667676e+00 -4.082100819243489553e+00 1.040264430161052367e+01 2.375761991414113261e+00 3.273116684136667676e+00 2.375761991414113261e+00 1.046078380953457199e+01
7.095741072545518335e+00 -7.915491321950367531e-01 -8.445390874733545161e-02 -7.915491321950367531e-01 7.752909919797972726e+00 3.981282914906092985e-01 -8.445390874733545161e-02 3.981282914906092985e-01 5.846224228151925217e+00
5.108623976395353594e+00 5.060204482594625297e+00 5.100174226769892405e-01 5.060204482594625297e+00 3.977453441052254846e+00 1.247767117315661034e+00 5.100174226769892405e-01 1.247767117315661034e+00 7.215768614019649085e+00
6.954050539953494869e+00 -2.015654459844703705e+00 -4.738827564636395095e+00 -2.015654459844703705e+00 2.338606754851749070e+00 5.791964008375748207e+00 -4.738827564636395095e+00 5.791964008375748207e+00 7.114844854307431632e+00
1.149334072305126497e+01 -3.946973319890402232e-01 1.787255921700320993e+00 -3.946973319890402232e-01 1.034816614429795045e+01 4.086210498501267274e+00 1.787255921700320993e+00 4.086210498501267274e+00 8.187794933498677707e+00
8.236064984417303947e+00 -9.995238097856143367e-02 2.139953577032222221e+00 -9.995238097856143367e-02 8.973179546807047657e+00 2.435483103173731179e-01 2.139953577032222221e+00 2.435483103173731179e-01 1.284070529450049669e+01
5.664184117392626838e+00 2.103663863828692637e+00 2.099591545291439765e+00 2.103663863828692637e+00 5.065945579982006564e+00 3.306268096816076252e+00 2.099591545291439765e+00 3.306268096816076252e+00 8.099654766992848920e+00
6.534520782388669957e+00 3.095404190171545888e+00 -1.161669336865214230e+00 3.095404190171545888e+00 3.791951236857617147e+00 1.424993921913954908e+00 -1.161669336865214230e+00 1.424993921913954908e+00 5.907290325850451662e-01
9.183358506908614771e+00 6.328407914037599280e-01 -3.382764172091532906e+00 6.328407914037599280e-01 2.793622970128811112e+00 -3.112814285936313485e+00 -3.382764172091532906e+00 -3.112814285936313485e+00 9.647633954089185337e+00
9.622552457043232366e+00 -1.300476867190039298e+00 3.272830251945974656e+00 -1.300476867190039298e+00 9.840321870198179610e+00 5.692696573940149385e+00 3.272830251945974656e+00 5.692696573940149385e+00 1.441106977997821303e+01
1.300183585533916286e+01 -2.779905358909288804e+00 -1.857201417310349711e+00 -2.779905358909288804e+00 5.501683663468036833e+00 -2.575753928385795088e+00 -1.857201417310349711e+00 -2.575753928385795088e+00 2.786331402839632432e+00
1.961057993583799952e+00 -1.696245206500803571e+00 -2.266176771326790795e-01 -1.696245206500803571e+00 7.055758874796743463e+00 1.328634396892572012e+00 -2.266176771326790795e-01 1.328634396892572012e+00 4.252621374507500995e+00
4.029864305162431215e+00 6.227857761530635194e+00 -1.251820755492651038e+00 6.227857761530635194e+00 5.553048427403505904e+00 2.807782683207881713e-01 -1.251820755492651038e+00 2.807782683207881713e-01 3.202978158137258724e+00
1.226298401944499439e+01 -6.136411171258322916e+00 -2.752028034610695784e+00 -6.136411171258322916e+00 7.766422047054605926e+00 -2.957842017197562345e+00 -2.752028034610695784e+00 -2.957842017197562345e+00 1.179931879736633782e+01
1.014838591807591150e+01 -1.731943374962683135e+00 -2.713583853190209449e+00 -1.731943374962683135e+00 7.527649682177711021e+00 1.316940491368167709e+00 -2.713583853190209449e+00 1.316940491368167709e+00 9.384969408436390381e+00
1.010114328697172681e+01 2.443353761631051224e+00 3.247032674423286913e+00 2.443353761631051224e+00 5.282675119749002057e+00 -1.341337041871158320e+00 3.247032674423286913e+00 -1.341337041871158320e+00 1.018474412593373657e+01
3.284324900294244287e+00 -5.673779595780863438e+00 -1.184913931818676325e+00 -5.673779595780863438e+00 7.582756744952459549e+00 2.151018577094451434e+00 -1.184913931818676325e+00 2.151018577094451434e+00 8.034977132976882430e+00
4.303475541929124404e+00 1.776726425298953638e+00 3.586305377513113513e+00 1.776726425298953638e+00 5.336792123429831669e+00 -1.907576122151899700e-01 3.586305377513113513e+00 -1.907576122151899700e-01 5.205182758592870940e+00
6.022685137979450154e+00 -3.323011926398144134e+00 6.616085462082050839e-01 -3.323011926398144134e+00 9.844151344052018970e+00 -2.233959376660513918e+00 6.616085462082050839e-01 -2.233959376660513918e+00 2.305256084996206045e+00
8.365308170287665490e+00 1.320713924141218465e+00 1.182155465286561791e+00 1.320713924141218465e+00 9.279412919379041114e+00 -4.211468540848933628e+00 1.182155465286561791e+00 -4.211468540848933628e+00 9.101426446796732961e+00
1.066350930589135082e+01 9.698407173283004612e-01 -3.594288118132009657e-01 9.698407173283004612e-01 8.690894396091739083e+00 3.889892365714568978e+00 -3.594288118132009657e-01 3.889892365714568978e+00 1.323519714252664947e+01
4.440720148778643406e+00 -4.975887563155882432e-01 -1.861759425214430719e+00 -4.975887563155882432e-01 7.177038000408470175e+00 -2.052056255209809166e+00 -1.861759425214430719e+00 -2.052056255209809166e+00 6.819134751350049761e+00
5.519535861092353279e+00 -1.858633578263817476e-01 2.644709364901904447e+00 -1.858633578263817476e-01 7.692192522157681012e+00 1.811048473888153154e+00 2.644709364901904447e+00 1.811048473888153154e+00 6.545934482509133900e+00
7.867557517516467591e+00 3.345291369404703730e+00 2.609272721483701929e-01 3.345291369404703730e+00 8.326035826228869396e+00 -1.169564902469551138e+00 2.609272721483701929e-01 -1.169564902469551138e+00 5.590427828289023182e+00
7.796142500232444483e+00 -4.631596069942163219e+00 -7.470774211964766875e-01 -4.631596069942163219e+00 9.310459678135526218e+00 -4.168771464075323507e+00 -7.470774211964766875e-01 -4.168771464075323507e+00 1.003796008177677024e+01
8.155776796008535001e+00 2.230628045747012234e+00 -2.961154667750801828e+00 2.230628045747012234e+00 9.863977433077419477e+00 -5.375398201305926493e-01 -2.961154667750801828e+00 -5.375398201305926493e-01 9.802338470997504771e+00
9.747399531465120504e+00 8.750926847189068880e+00 1.906517568403684137e+00 8.750926847189068880e+00 7.564163559704391027e+00 -3.404358668555129253e+00 1.906517568403684137e+00 -3.404358668555129253e+00 5.869499957039157501e+00
2.323400941597971059e+00 -2.163023821956565840e+00 5.315652182399291270e+00 -2.163023821956565840e+00 6.865798291286091981e+00 -5.987864946449914516e-01 5.315652182399291270e+00 -5.987864946449914516e-01 5.907109749034579416e+00
8.682270296437160084e+00 -2.959361353165589570e+00 -3.270096692560876761e+00 -2.959361353165589570e+00 9.038436271991155735e+00 -3.720181292728605094e+00 -3.270096692560876761e+00 -3.720181292728605094e+00 9.373723831558288921e+00
8.613900177875946085e+00 -4.334877227530600230e+00 2.750882305847921039e+00 -4.334877227530600230e+00 9.564599752721809622e+00 2.816774163280959975e+00 2.750882305847921039e+00 2.816774163280959975e+00 2.005411395634030036e+00
9.991707509766508011e+00 1.743637280487087438e+00 -1.395111572280506307e+00 1.743637280487087438e+00 1.077632000151735525e+01 5.982634445576379134e-01 -1.395111572280506307e+00 5.982634445576379134e-01 1.071026624762870760e+01
1.161217894825534280e+01 8.164500524251181446e-01 -2.901838297130207245e+00 8.164500524251181446e-01 1.274354251398782090e+01 -4.776692654888739509e-01 -2.901838297130207245e+00 -4.776692654888739509e-01 1.101459422345391381e+01
8.913993938708291154e+00 -2.682462372992673760e+00 3.371294430890280136e+00 -2.682462372992673760e+00 1.481277847385249302e+01 3.964688528206126161e+00 3.371294430890280136e+00 3.964688528206126161e+00 1.020183665557404140e+01
-2.190023169322816154e-01 -1.899493752944936720e+00 -2.075033098332839998e+00 -1.899493752944936720e+00 4.791051625143945003e+00 -1.156108816293705877e+00 -2.075033098332839998e+00 -1.156108816293705877e+00 4.603426086666122963e+00
5.517698958999862846e+00 1.372975345369293887e+00 4.530921381700114381e+00 1.372975345369293887e+00 4.326004056405852616e+00 6.168254958719346370e-02 4.530921381700114381e+00 6.168254958719346370e-02 6.243599078445274397e-01
3.377583485512031025e+00 -2.102518135065918337e+00 -8.052381001954895368e+00 -2.102518135065918337e+00 7.060186120178984837e+00 2.179748971178371075e+00 -8.052381001954895368e+00 2.179748971178371075e+00 5.538701910721808730e+00
1.149939315977635701e+01 -8.877467607608101607e-01 -4.331041526890007987e+00 -8.877467607608101607e-01 9.941152228109084277e+00 -4.863226310411980613e+00 -4.331041526890007987e+00 -4.863226310411980613e+00 1.320283653176502447e+01
1.543107971818517576e+01 4.102474865503261015e+00 2.203516616219186819e+00 4.102474865503261015e+00 1.319043277255064162e+01 1.493015340416933290e+00 2.203516616219186819e+00 1.493015340416933290e+00 1.068145490531698094e+01
4.606352676440600646e+00 6.100376756311715276e+00 1.881162092740545466e+00 6.100376756311715276e+00 6.927705005196436616e+00 5.087870096143575438e+00 1.881162092740545466e+00 5.087870096143575438e+00 1.080254722732608386e+01
1.633392021003818861e+00 -1.660210791554196597e+00 5.288129784945688527e+00 -1.660210791554196597e+00 4.548456013199966286e+00 -1.312127185207164315e+00 5.288129784945688527e+00 -1.312127185207164315e+00 -1.690236357282991930e+00
3.350254118447808072e+00 -5.947378378974048196e+00 -4.022304986042821717e+00 -5.947378378974048196e+00 6.364797255829197198e+00 5.272083355480091882e+00 -4.022304986042821717e+00 5.272083355480091882e+00 1.055548078249258204e+01
1.531541092743899135e+01 4.639497862333255007e+00 1.125865313028513226e+00 4.639497862333255007e+00 6.423123567355871977e+00 -2.273648915431841555e+00 1.125865313028513226e+00 -2.273648915431841555e+00 1.610235223743591249e+01
1.233187718809356070e+01 -4.632791612998971686e+00 -1.357912748210862164e+00 -4.632791612998971686e+00 1.077184916862783126e+01 -1.321037717052437221e+00 -1.357912748210862164e+00 -1.321037717052437221e+00 1.326562744939446858e+01
7.297339520499785515e+00 2.361141496115231053e+00 -5.531559786314731220e+00 2.361141496115231053e+00 9.035005312489587936e+00 -3.328155252257120611e-01 -5.531559786314731220e+00 -3.328155252257120611e-01 4.075077003784742580e+00
7.892041243034016773e+00 -2.927828905042275665e+00 -2.038892828011411584e+00 -2.927828905042275665e+00 5.929588449217273904e+00 -1.964183840534412973e+00 -2.038892828011411584e+00 -1.964183840534412973e+00 3.299275415291099467e+00
7.669271720115438562e+00 -1.206091233569740684e+00 -1.189135693238029923e+00 -1.206091233569740684e+00 5.010184704598064975e+00 -2.654174080768302080e+00 -1.189135693238029923e+00 -2.654174080768302080e+00 7.072023241798736315e+00
7.721140853777998636e+00 -1.781570865393728109e+00 1.903404175026579770e+00 -1.781570865393728109e+00 1.335192448702104961e+01 7.120785208870946015e+00 1.903404175026579770e+00 7.120785208870946015e+00 1.108130178995175363e+01
1.073068388139575724e+01 -2.829894002972078049e+00 -1.022002509968308548e+00 -2.829894002972078049e+00 1.427185128172760997e+01 -8.976629186668878546e+00 -1.022002509968308548e+00 -8.976629186668878546e+00 1.350220175854712679e+01
1.513974704631600332e+00 2.916004236996032686e-02 1.093579423707939924e+00 2.916004236996032686e-02 3.601511190766891968e+00 7.568976865865395531e+00 1.093579423707939924e+00 7.568976865865395531e+00 6.543717746424634996e+00
9.370130975601110634e+00 -4.154848368892912092e+00 -1.289797927906570996e+00 -4.154848368892912092e+00 5.338267871890578498e+00 2.147805555129279620e-01 -1.289797927906570996e+00 2.147805555129279620e-01 9.304874250417002557e+00
4.261450958124969546e+00 -2.693334342665522296e+00 8.018046499792188531e-01 -2.693334342665522296e+00 7.464466476982752674e+00 -9.894177348835332397e-01 8.018046499792188531e-01 -9.894177348835332397e-01 9.167019418465569558e+00
5.218613937621699783e+00 1.028665171795312139e-01 -1.449925976077807599e+00 1.028665171795312139e-01 8.418509836315626771e+00 6.087306730914631148e-01 -1.449925976077807599e+00 6.087306730914631148e-01 8.639722662545651133e+00
1.334034889044497518e+01 2.968022813540693861e+00 5.767617272166790876e+00 2.968022813540693861e+00 9.751372221414305486e+00 1.218395364196057651e-01 5.767617272166790876e+00 1.218395364196057651e-01 1.845138263331420703e+01
9.242600156088156993e+00 4.631247369883928044e+00 7.322016276406716484e-01 4.631247369883928044e+00 1.003408702041565270e+01 2.435364794225401308e+00 7.322016276406716484e-01 2.435364794225401308e+00 7.723345136288989110e+00
6.547161159499713001e+00 -2.437376046347010661e+00 2.724325060341219906e+00 -2.437376046347010661e+00 1.341847638385003449e+01 -1.789036782712024820e+00 2.724325060341219906e+00 -1.789036782712024820e+00 8.118808363048795940e+00
1.341928586612807983e+01 3.623030965789437730e+00 -3.401531707368718571e+00 3.623030965789437730e+00 1.191877970124583541e+01 6.246027525279416182e-01 -3.401531707368718571e+00 6.246027525279416182e-01 1.314001448020181151e+01
9.858099346381445471e+00 -1.988941544669147632e+00 1.677477671223617905e+00 -1.988941544669147632e+00 7.986956153528423030e+00 3.254971827534903106e+00 1.677477671223617905e+00 3.254971827534903106e+00 2.904241836817332167e+00
1.291071305797806801e+01 1.246820645729021182e+00 4.433173283232542339e+00 1.246820645729021182e+00 1.709900549852783769e+01 2.692338056784849165e+00 4.433173283232542339e+00 2.692338056784849165e+00 1.214920817187208968e+01
1.193898562426324261e+01 -4.890568131049711553e+00 -6.900282236330900432e+00 -4.890568131049711553e+00 1.236909469252346838e+01 1.397521338754385223e+00 -6.900282236330900432e+00 1.397521338754385223e+00 1.190432732918931613e+01
3.614998410876508306e+00 3.443369487570248300e+00 6.044397943391378369e+00 3.443369487570248300e+00 8.941684459404259044e+00 5.661581320529367467e-01 6.044397943391378369e+00 5.661581320529367467e-01 8.087911047174412005e-01
2.706678346679791680e+00 2.145632406552060445e+00 -5.066175971091911867e-01 2.145632406552060445e+00 4.618052808751759386e+00 1.839430167913837622e+00 -5.066175971091911867e-01 1.839430167913837622e+00 5.604992282507116563e+00