7.635600000000000165e+00 6.010299999999999532e-01 8.885100000000000220e-01 9.783010000000000872e+00 5.128239999999999910e+00 1.244180000000000064e+00 1.165710000000000024e+00 4.659729999999999706e+00 1.011449999999999960e+01 2.966479999999999784e+00 1.020159999999999911e+01 9.992229999999999279e+00 3.429870000000000196e+00 2.072280000000000122e+00 9.725289999999999324e+00 5.536660000000000359e+00 8.172760000000000247e+00 9.602639999999999176e+00 5.500659999999999883e+00 2.470660000000000078e+00 1.179669999999999996e+00 6.593989999999999796e+00 8.196749999999999758e+00 1.462320000000000064e+00 -6.819499999999999451e-01 1.687289999999999957e+00 7.737110000000000376e+00 1.909100000000000019e+00 7.377779999999999561e+00 7.997910000000000075e+00 9.566019999999999968e+00 2.412679999999999936e+00 3.381060000000000176e+00 1.053720000000000034e+01 8.758290000000000575e+00 2.948770000000000113e+00 5.119299999999999962e-01 5.622749999999999915e+00 3.170710000000000139e+00 1.410829999999999984e+01 1.068979999999999997e+01 2.487600000000000033e+00 -3.166539999999999910e+00 -2.516900000000000248e-01 8.339650000000000674e+00 -1.028370000000000006e+00 5.828330000000000233e+00 8.181150000000000588e+00 3.377759999999999874e+00 4.066209999999999880e+00 3.182259999999999867e+00 5.331959999999999589e+00 9.509249999999999758e+00 3.294029999999999792e+00 5.482850000000000001e+00 1.731600000000000084e-01 7.872329999999999828e+00 7.389700000000000379e+00 6.798390000000000377e+00 7.727999999999999758e+00 6.662189999999999834e+00 2.961570000000000036e+00 5.821460000000000079e+00 8.507630000000000692e+00 9.115230000000000388e+00 5.670200000000000351e+00 2.355090000000000128e+00 1.492080000000000073e+00 5.393500000000000405e+00 4.052660000000000373e+00 7.371599999999999930e+00 5.468060000000000365e+00 1.614619999999999944e+00 1.540240000000000054e+00 1.387049999999999894e+00 2.701869999999999994e+00 7.163269999999999804e+00 1.300170000000000048e+00 7.319790000000000241e+00 3.209589999999999943e+00 9.531129999999999214e+00 9.513379999999999725e+00 8.613390000000000768e+00 1.030419999999999980e+01 7.469070000000000320e+00 -3.925500000000000100e-01 5.094070000000000320e+00 9.009320000000000661e+00 5.400260000000000282e+00 5.094660000000000188e+00 1.857900000000000107e+00 4.790479999999999627e+00 5.986369999999999969e+00 3.676470000000000127e+00 1.057060000000000066e+01 5.902140000000000164e+00 7.908719999999999750e+00 1.111430000000000007e+01 3.188029999999999919e+00 6.022350000000000314e+00 5.403159999999999741e+00 3.028000000000000025e+00 2.895300000000000207e+00 -8.734300000000000397e-01 8.046820000000000306e+00 4.619229999999999947e+00 4.942840000000000344e+00 8.005869999999999820e+00 1.022749999999999915e+01 1.761090000000000044e+00 5.951400000000000023e-01 1.186989999999999945e+01 7.538190000000000168e+00 6.390700000000000269e-01 -1.395520000000000094e+00 2.929910000000000014e+00 1.036480000000000068e+01 3.753699999999999815e-01 8.568500000000000227e+00 1.044229999999999947e+01 7.801999999999999602e+00 8.730299999999999727e-01 6.655649999999999622e+00 9.413840000000000430e+00 6.602129999999999832e+00 6.670189999999999841e+00 1.453349999999999920e+00 3.494850000000000012e+00 4.339629999999999654e+00 3.258379999999999832e+00 9.413040000000000518e+00 4.313719999999999999e+00 8.426589999999999137e+00 1.245799999999999963e-01 3.442299999999999915e+00 1.020299999999999940e+01 5.742259999999999920e+00 3.459900000000000198e+00 7.128200000000000092e-01 4.309929999999999595e+00 7.553130000000000344e+00 2.354270000000000085e+00 1.003100000000000058e+01 7.344299999999999606e+00 8.882360000000000255e+00 3.445100000000000051e+00 5.477660000000000196e+00 1.092779999999999951e+01 9.242720000000000269e+00 5.504749999999999588e+00 2.241999999999999896e-02 9.619999999999999662e-01 5.410149999999999793e+00 1.746869999999999923e+00 6.721490000000000187e+00 5.489279999999999937e+00 5.524770000000000181e+00 3.403300000000000214e-01 4.749319999999999986e+00 7.011459999999999582e+00 6.140819999999999723e+00 4.676149999999999807e+00 3.875719999999999832e+00 4.009439999999999671e+00 6.244159999999999933e+00 5.489130000000000287e+00 9.801569999999999894e+00 6.273410000000000153e+00 2.497279999999999944e+00 3.013700000000000268e-01 3.369470000000000187e+00 4.344750000000000334e+00 6.512669999999999959e+00 3.112929999999999975e+00 6.616959999999999731e+00 4.419999999999999929e+00 7.733830000000000204e+00 8.217549999999999244e+00 9.506990000000000052e+00 8.017229999999999634e+00 5.251140000000000363e+00 1.018799999999999983e-01 1.408889999999999976e+00 7.151830000000000354e+00 5.843840000000000146e+00 1.413319999999999910e+00 3.822439999999999838e+00 4.382249999999999979e+00 9.810769999999999769e+00 5.284950000000000259e+00 1.040090000000000003e+01 9.633150000000000546e+00 5.625720000000000276e+00 3.315850000000000186e+00 3.497320000000000206e+00 8.053639999999999688e+00 9.104119999999999990e+00 3.267020000000000035e+00 3.107320000000000082e+00 1.098300000000000054e+00 7.663770000000000415e+00 4.567309999999999981e+00 6.912700000000000067e+00 7.892920000000000158e+00 6.029139999999999944e+00 1.216280000000000028e+00 9.960839999999999250e+00 7.968950000000000422e+00 6.932669999999999888e+00 1.001120000000000054e+01 2.740060000000000162e+00 3.481819999999999915e+00 1.111979999999999968e+00 4.190019999999999634e+00 9.322380000000000777e+00 9.970499999999999918e-01 1.203940000000000055e+01 5.454279999999999795e+00 7.189499999999999780e-01 1.338090000000000046e+01 1.146749999999999936e+01 3.893300000000000094e-01 -2.890969999999999818e+00 -9.742100000000000204e-01 1.048470000000000013e+01 -1.172860000000000014e+00 4.958020000000000316e+00 1.046149999999999913e+01 8.537319999999999354e+00 2.877650000000000041e+00 1.075520000000000032e+00 1.000750000000000028e+01 8.353210000000000690e+00 6.714599999999999458e-01 4.574300000000000033e-01 1.987119999999999997e+00 1.003400000000000070e+01 2.231069999999999887e+00 7.690459999999999852e+00 1.041329999999999956e+01 1.149859999999999971e+01 2.190020000000000078e+00 2.157950000000000035e+00 1.291050000000000075e+01 8.161020000000000607e+00 2.308409999999999851e+00 -2.624800000000000022e+00 2.415610000000000035e+00 8.856379999999999697e+00 -6.625400000000000178e-01 8.355290000000000106e+00 8.706599999999999895e+00
7.811239999999999739e+00 4.670300000000000007e-01 1.423089999999999966e+00 9.594219999999999970e+00 5.419260000000000410e+00 1.073050000000000059e+00 1.304070000000000062e+00 4.380760000000000431e+00 1.009299999999999997e+01 2.962520000000000042e+00 1.004379999999999917e+01 1.000440000000000040e+01 3.578399999999999803e+00 1.831779999999999964e+00 9.816060000000000230e+00 5.657890000000000086e+00 8.020929999999999893e+00 9.958550000000000679e+00 5.086260000000000225e+00 2.493079999999999963e+00 1.326149999999999940e+00 6.712100000000000399e+00 8.032640000000000668e+00 1.303449999999999998e+00 -4.050699999999999856e-01 1.726869999999999905e+00 7.666820000000000412e+00 1.986949999999999994e+00 7.626629999999999576e+00 7.996509999999999785e+00 9.565009999999999124e+00 2.520129999999999981e+00 3.527839999999999865e+00 1.010069999999999979e+01 8.419240000000000279e+00 3.024160000000000181e+00 3.770100000000000118e-01 5.902680000000000149e+00 3.555870000000000086e+00 1.379279999999999973e+01 1.035769999999999946e+01 2.556810000000000027e+00 1.306000000000000043e-02 1.048489999999999966e+01 8.020709999999999340e+00 -1.207670000000000021e+00 5.764780000000000015e+00 8.091060000000000585e+00 3.594829999999999970e+00 4.266029999999999767e+00 3.299389999999999823e+00 5.096700000000000230e+00 9.776809999999999334e+00 3.308899999999999952e+00 5.735100000000000087e+00 1.391999999999999904e-01 8.012130000000000862e+00 7.119449999999999612e+00 6.653129999999999988e+00 7.519969999999999821e+00 6.752360000000000362e+00 3.076360000000000205e+00 5.864740000000000286e+00 8.871159999999999712e+00 8.937709999999999155e+00 5.632139999999999702e+00 2.017220000000000013e+00 1.562049999999999939e+00 5.257950000000000124e+00 3.761719999999999953e+00 7.268229999999999968e+00 5.359729999999999883e+00 1.537300000000000111e+00 1.499179999999999957e+00 1.324510000000000076e+00 2.634999999999999787e+00 6.938799999999999635e+00 1.029379999999999962e+00 7.707959999999999923e+00 3.291020000000000056e+00 9.807010000000000005e+00 9.641679999999999140e+00 8.761630000000000251e+00 9.862259999999999138e+00 7.366469999999999629e+00 -3.278699999999999948e-01 5.072759999999999714e+00 9.082649999999999224e+00 5.488410000000000011e+00 5.168529999999999625e+00 1.711519999999999930e+00 4.808440000000000047e+00 6.043040000000000411e+00 3.392180000000000195e+00 1.050880000000000081e+01 5.981399999999999828e+00 7.953199999999999825e+00 1.108569999999999922e+01 2.938079999999999803e+00 6.089039999999999786e+00 5.382170000000000343e+00 3.081300000000000150e+00 2.912549999999999972e+00 -9.009599999999999831e-01 7.839789999999999814e+00 4.590300000000000047e+00 5.062079999999999913e+00 8.131439999999999557e+00 1.036379999999999946e+01 1.786019999999999941e+00 6.092699999999999783e-01 1.190879999999999939e+01 7.519919999999999938e+00 7.260299999999999532e-01 -1.216299999999999937e+00 2.833670000000000133e+00 1.033350000000000080e+01 4.859499999999999931e-01 8.676970000000000738e+00 1.039039999999999964e+01 7.596540000000000070e+00 7.924900000000000277e-01 6.762209999999999610e+00 9.358140000000000569e+00 6.731130000000000280e+00 6.721009999999999707e+00 1.222949999999999982e+00 3.738519999999999843e+00 4.380720000000000169e+00 3.033069999999999933e+00 9.308460000000000178e+00 4.381509999999999572e+00 8.588749999999999218e+00 3.012000000000000233e-01 3.657859999999999889e+00 1.011899999999999977e+01 5.881960000000000299e+00 3.455490000000000173e+00 6.581700000000000328e-01 4.275529999999999831e+00 7.622639999999999638e+00 2.409769999999999968e+00 1.000600000000000023e+01 7.565909999999999691e+00 9.088860000000000383e+00 3.521879999999999900e+00 5.580020000000000202e+00 1.112509999999999977e+01 9.266040000000000276e+00 5.352640000000000065e+00 -2.054400000000000115e-01 8.754100000000000215e-01 5.559820000000000206e+00 1.485570000000000057e+00 6.778109999999999857e+00 5.711719999999999686e+00 5.388020000000000032e+00 2.850099999999999856e-01 4.636910000000000309e+00 7.114309999999999690e+00 6.338029999999999831e+00 4.847719999999999807e+00 3.732660000000000089e+00 4.037429999999999630e+00 6.324340000000000295e+00 5.363710000000000200e+00 9.804880000000000706e+00 6.152379999999999960e+00 2.671590000000000131e+00 4.970499999999999918e-01 3.250119999999999898e+00 4.379450000000000287e+00 6.567000000000000171e+00 3.054019999999999957e+00 6.402099999999999902e+00 4.275529999999999831e+00 7.955460000000000420e+00 8.044810000000000016e+00 9.455330000000000013e+00 7.777280000000000193e+00 5.388659999999999783e+00 1.768599999999999894e-01 1.311129999999999907e+00 7.174699999999999633e+00 5.704069999999999752e+00 1.379760000000000097e+00 3.641519999999999868e+00 4.340259999999999785e+00 9.741970000000000240e+00 1.903999999999999915e+00 -1.114540000000000086e+00 9.641159999999999286e+00 5.985769999999999591e+00 3.399379999999999846e+00 3.442610000000000170e+00 7.804260000000000197e+00 9.079620000000000246e+00 3.334670000000000023e+00 3.291959999999999997e+00 1.047549999999999981e+00 7.305430000000000312e+00 4.634470000000000312e+00 7.191040000000000099e+00 7.778439999999999799e+00 6.032919999999999838e+00 1.381869999999999932e+00 9.925610000000000710e+00 7.883339999999999570e+00 6.971969999999999779e+00 1.010640000000000072e+01 2.701709999999999834e+00 3.546549999999999869e+00 9.787200000000000344e-01 4.424489999999999590e+00 9.209049999999999514e+00 1.027649999999999952e+00 1.205339999999999989e+01 5.496690000000000076e+00 9.298899999999999944e-01 1.341629999999999967e+01 1.133760000000000012e+01 3.661200000000000010e-01 -2.891579999999999817e+00 -8.972400000000000375e-01 1.034050000000000047e+01 -9.017699999999999605e-01 4.941819999999999879e+00 1.032900000000000063e+01 8.538169999999999149e+00 2.695600000000000218e+00 1.051930000000000032e+00 9.872500000000000497e+00 7.948949999999999960e+00 7.430400000000000338e-01 5.611500000000000377e-01 1.879780000000000006e+00 1.011480000000000068e+01 2.287090000000000067e+00 7.670090000000000074e+00 1.018200000000000038e+01 1.158949999999999925e+01 1.984259999999999913e+00 2.218919999999999781e+00 1.285120000000000040e+01 8.190269999999999939e+00 2.493650000000000144e+00 -2.443740000000000023e+00 2.472119999999999873e+00 8.667960000000000775e+00 -5.700600000000000112e-01 8.230840000000000600e+00 8.624439999999999884e+00
7.826830000000000176e+00 5.588499999999999579e-01 1.479789999999999939e+00 9.572219999999999729e+00 5.424979999999999691e+00 1.147219999999999906e+00 1.277809999999999890e+00 4.080549999999999677e+00 1.004720000000000013e+01 2.956589999999999829e+00 1.031879999999999953e+01 1.007939999999999969e+01 3.754750000000000032e+00 1.856540000000000079e+00 9.850920000000000343e+00 5.732059999999999711e+00 7.895199999999999996e+00 9.811740000000000350e+00 5.087760000000000282e+00 2.262610000000000010e+00 1.373669999999999947e+00 6.462869999999999671e+00 8.127779999999999561e+00 1.340840000000000032e+00 -8.005799999999999583e-01 1.193119999999999958e+00 8.010780000000000456e+00 2.125599999999999934e+00 7.682419999999999582e+00 7.955350000000000144e+00 9.840970000000000439e+00 3.302130000000000010e+00 3.311799999999999855e+00 1.057469999999999999e+01 8.330489999999999284e+00 3.128010000000000179e+00 5.131700000000000150e-01 5.976659999999999862e+00 3.649249999999999883e+00 1.410779999999999923e+01 1.078940000000000055e+01 2.730049999999999866e+00 1.199590000000000067e+01 9.962669999999999249e+00 7.618190000000000239e+00 -1.197149999999999936e+00 5.497399999999999842e+00 8.299260000000000304e+00 3.564459999999999962e+00 4.224300000000000388e+00 3.446670000000000122e+00 5.157630000000000159e+00 1.009200000000000053e+01 3.171190000000000175e+00 5.476169999999999760e+00 1.477100000000000080e-01 7.765290000000000248e+00 7.260620000000000296e+00 6.177010000000000112e+00 7.775629999999999598e+00 6.732260000000000133e+00 2.915210000000000079e+00 5.636239999999999917e+00 8.679619999999999891e+00 9.040330000000000865e+00 5.431160000000000210e+00 2.045609999999999928e+00 1.506490000000000107e+00 5.242799999999999905e+00 3.903020000000000156e+00 7.129640000000000200e+00 5.596949999999999648e+00 1.481729999999999992e+00 1.584840000000000027e+00 8.926199999999999690e-01 2.812780000000000058e+00 6.943859999999999921e+00 1.481459999999999999e+00 7.500149999999999650e+00 3.080299999999999816e+00 9.875890000000000057e+00 9.495219999999999771e+00 8.802339999999999165e+00 9.818860000000000809e+00 7.359189999999999898e+00 -1.337800000000000100e-01 4.948439999999999728e+00 9.007039999999999935e+00 5.515039999999999942e+00 5.161889999999999645e+00 1.605080000000000062e+00 4.728819999999999801e+00 6.059230000000000338e+00 3.378649999999999931e+00 1.064179999999999993e+01 5.880469999999999864e+00 4.418849999999999945e+00 -3.161100000000000021e-01 2.914140000000000175e+00 6.072540000000000049e+00 5.393390000000000128e+00 3.100639999999999841e+00 6.398729999999999585e+00 1.069669999999999987e+01 7.808600000000000207e+00 4.604630000000000223e+00 4.889540000000000219e+00 8.040829999999999700e+00 1.044880000000000031e+01 1.741000000000000103e+00 6.643799999999999706e-01 1.200530000000000008e+01 7.428440000000000154e+00 6.916200000000000125e-01 -1.292070000000000052e+00 2.883649999999999824e+00 1.047460000000000058e+01 4.511000000000000010e-01 8.636749999999999261e+00 1.041719999999999935e+01 7.573809999999999931e+00 6.277000000000000357e-01 6.825109999999999566e+00 9.357889999999999375e+00 6.791089999999999627e+00 6.704119999999999635e+00 1.336570000000000036e+00 3.746459999999999901e+00 4.328219999999999956e+00 3.092000000000000082e+00 9.383480000000000487e+00 4.205899999999999750e+00 8.594419999999999504e+00 6.888900000000000023e-01 3.629840000000000177e+00 1.009050000000000047e+01 5.948369999999999713e+00 3.524799999999999933e+00 4.545799999999999841e-01 3.954299999999999926e+00 7.518379999999999619e+00 2.408640000000000114e+00 1.019309999999999938e+01 7.612190000000000012e+00 9.089199999999999946e+00 3.579730000000000079e+00 5.586850000000000094e+00 1.098670000000000080e+01 9.432430000000000092e+00 5.171549999999999869e+00 -2.601700000000000124e-01 1.031819999999999959e+00 5.590900000000000425e+00 1.476339999999999986e+00 6.794109999999999872e+00 5.719540000000000290e+00 5.293899999999999828e+00 4.442699999999999982e-01 4.687850000000000072e+00 7.015939999999999621e+00 6.212500000000000355e+00 4.887780000000000236e+00 3.663759999999999906e+00 4.132179999999999964e+00 6.229919999999999902e+00 5.426029999999999909e+00 9.937540000000000262e+00 6.055760000000000254e+00 2.653000000000000025e+00 6.937100000000000488e-01 2.984659999999999869e+00 4.240610000000000213e+00 6.391110000000000291e+00 3.285899999999999821e+00 6.413669999999999760e+00 3.916650000000000187e+00 7.808869999999999756e+00 8.162000000000000810e+00 9.622840000000000060e+00 7.662749999999999950e+00 5.547889999999999766e+00 6.257000000000000062e-02 1.331679999999999975e+00 7.164539999999999687e+00 5.917839999999999989e+00 1.463419999999999943e+00 3.672610000000000152e+00 4.281690000000000218e+00 9.736409999999999343e+00 5.396510000000000140e+00 1.033009999999999984e+01 9.519379999999999953e+00 5.764289999999999914e+00 3.374260000000000037e+00 3.430439999999999934e+00 7.601429999999999687e+00 9.285470000000000113e+00 3.248250000000000082e+00 3.238049999999999873e+00 1.049639999999999906e+00 7.502769999999999939e+00 4.623639999999999972e+00 6.964290000000000092e+00 7.791839999999999655e+00 6.237149999999999750e+00 1.010709999999999997e+00 9.852959999999999496e+00 8.000719999999999388e+00 6.813229999999999897e+00 1.003860000000000063e+01 2.896279999999999966e+00 3.417139999999999844e+00 1.145359999999999934e+00 4.289979999999999905e+00 9.309160000000000323e+00 1.030499999999999972e+00 1.217970000000000041e+01 5.400439999999999685e+00 9.206600000000000339e-01 1.342639999999999922e+01 1.138030000000000008e+01 5.446699999999999875e-01 -2.970299999999999940e+00 -9.557799999999999629e-01 1.007879999999999932e+01 -9.222099999999999742e-01 4.875729999999999897e+00 1.057450000000000045e+01 8.728719999999999146e+00 2.873149999999999871e+00 1.122230000000000061e+00 1.008569999999999922e+01 8.070069999999999411e+00 7.350100000000000522e-01 4.979399999999999937e-01 1.877599999999999936e+00 1.009200000000000053e+01 2.362379999999999924e+00 7.848029999999999617e+00 1.042409999999999926e+01 1.165390000000000015e+01 1.942790000000000017e+00 2.273559999999999803e+00 1.297359999999999935e+01 8.199120000000000630e+00 2.318960000000000132e+00 -2.461370000000000058e+00 2.440100000000000158e+00 8.863699999999999690e+00 -6.085800000000000098e-01 7.921020000000000394e+00 8.818680000000000518e+00
7.681239999999999846e+00 8.974800000000000555e-01 1.392020000000000035e+00 9.565879999999999939e+00 5.703500000000000014e+00 1.130139999999999922e+00 1.249109999999999943e+00 4.213020000000000209e+00 9.662349999999999994e+00 2.887750000000000039e+00 1.028759999999999941e+01 9.889969999999999928e+00 3.952389999999999848e+00 1.915699999999999958e+00 9.680070000000000618e+00 6.079159999999999897e+00 7.938270000000000159e+00 9.549419999999999575e+00 5.233290000000000219e+00 2.490240000000000009e+00 1.174239999999999950e+00 6.243290000000000006e+00 8.124159999999999826e+00 1.426080000000000014e+00 -9.347600000000000353e-01 1.544499999999999984e+00 7.764800000000000146e+00 2.231050000000000200e+00 7.558569999999999567e+00 8.090279999999999916e+00 1.007130000000000081e+01 3.315339999999999954e+00 3.199149999999999938e+00 1.032489999999999952e+01 8.501870000000000260e+00 2.890400000000000080e+00 7.061600000000000099e-01 5.941489999999999938e+00 3.299879999999999924e+00 1.394510000000000005e+01 1.111100000000000065e+01 2.785309999999999953e+00 1.187289999999999957e+01 1.006119999999999948e+01 7.586090000000000444e+00 -1.695109999999999895e+00 4.925419999999999909e+00 8.319789999999999353e+00 3.569179999999999797e+00 4.218810000000000393e+00 3.574570000000000025e+00 5.244239999999999569e+00 1.012199999999999989e+01 3.222129999999999939e+00 5.277169999999999916e+00 4.196099999999999830e-01 7.811810000000000365e+00 7.213429999999999787e+00 6.177810000000000024e+00 7.762190000000000367e+00 6.875180000000000291e+00 2.805200000000000138e+00 5.639450000000000074e+00 8.744619999999999393e+00 8.964339999999999975e+00 5.629800000000000360e+00 2.269120000000000026e+00 1.650560000000000027e+00 5.281100000000000350e+00 3.791090000000000071e+00 7.446480000000000210e+00 5.625490000000000101e+00 1.722290000000000099e+00 1.442600000000000104e+00 9.966399999999999704e-01 3.179370000000000029e+00 7.394280000000000186e+00 1.227729999999999988e+00 7.328969999999999985e+00 3.171520000000000117e+00 9.869569999999999510e+00 9.454589999999999606e+00 8.716369999999999507e+00 1.009220000000000006e+01 7.410870000000000068e+00 -1.786899999999999877e-01 5.030479999999999841e+00 9.048299999999999343e+00 5.471059999999999590e+00 5.081339999999999968e+00 1.523409999999999931e+00 4.731589999999999741e+00 6.060419999999999696e+00 3.467130000000000045e+00 1.066680000000000028e+01 5.889750000000000263e+00 4.455750000000000099e+00 -2.916300000000000003e-01 3.038889999999999869e+00 6.173230000000000217e+00 5.485039999999999694e+00 3.115950000000000220e+00 6.371349999999999625e+00 1.064289999999999914e+01 8.025359999999999161e+00 4.563369999999999926e+00 4.771899999999999586e+00 7.968799999999999883e+00 1.032380000000000031e+01 1.716720000000000024e+00 6.472499999999999920e-01 1.206460000000000043e+01 7.397319999999999673e+00 6.188299999999999912e-01 -1.377820000000000045e+00 2.866530000000000022e+00 1.043660000000000032e+01 4.227899999999999991e-01 8.575219999999999843e+00 1.032990000000000030e+01 7.677480000000000082e+00 6.927400000000000224e-01 6.836210000000000342e+00 9.428060000000000329e+00 6.609840000000000160e+00 6.748470000000000191e+00 1.304610000000000047e+00 3.884149999999999991e+00 4.231309999999999683e+00 3.100130000000000052e+00 9.616339999999999222e+00 4.234799999999999898e+00 8.420899999999999608e+00 7.525199999999999667e-01 3.603600000000000136e+00 1.013760000000000083e+01 5.981880000000000308e+00 3.488519999999999843e+00 4.269700000000000162e-01 3.870439999999999880e+00 7.506059999999999732e+00 2.314319999999999933e+00 1.011219999999999963e+01 7.498780000000000001e+00 9.158390000000000697e+00 3.558499999999999996e+00 5.597669999999999924e+00 1.096850000000000058e+01 9.429399999999999338e+00 5.137959999999999638e+00 -2.976000000000000173e-02 1.025390000000000024e+00 5.611690000000000289e+00 1.504040000000000044e+00 6.738470000000000404e+00 5.967800000000000438e+00 5.335639999999999716e+00 4.736799999999999899e-01 4.829170000000000407e+00 7.058110000000000106e+00 6.259870000000000267e+00 4.885329999999999728e+00 3.548130000000000006e+00 4.012349999999999639e+00 6.249390000000000001e+00 5.527720000000000411e+00 9.834479999999999222e+00 6.194410000000000416e+00 2.620810000000000084e+00 5.983199999999999630e-01 3.127899999999999903e+00 4.354870000000000019e+00 6.403190000000000381e+00 3.286270000000000024e+00 6.400879999999999903e+00 3.899869999999999948e+00 7.734140000000000015e+00 8.247230000000000061e+00 9.760059999999999292e+00 7.828839999999999577e+00 5.378180000000000405e+00 9.629999999999999671e-02 1.287150000000000016e+00 7.077749999999999986e+00 5.822720000000000340e+00 1.385369999999999990e+00 3.556519999999999904e+00 4.230000000000000426e+00 9.666119999999999379e+00 5.344199999999999839e+00 1.021439999999999948e+01 9.645530000000000825e+00 5.967570000000000263e+00 3.488319999999999865e+00 3.561789999999999790e+00 7.803490000000000038e+00 9.291439999999999699e+00 3.291549999999999976e+00 2.928960000000000008e+00 1.033970000000000056e+00 7.779889999999999972e+00 4.769330000000000069e+00 6.757380000000000386e+00 7.761000000000000121e+00 6.307879999999999932e+00 9.751400000000000068e-01 9.938969999999999416e+00 8.146129999999999427e+00 6.695899999999999963e+00 9.959170000000000300e+00 2.929359999999999964e+00 3.470419999999999838e+00 1.223260000000000014e+00 4.295379999999999754e+00 9.534119999999999706e+00 9.778900000000000370e-01 1.207680000000000042e+01 5.384570000000000078e+00 8.802999999999999714e-01 1.311839999999999939e+01 1.146110000000000007e+01 6.421900000000000386e-01 -3.074019999999999975e+00 -1.016499999999999959e+00 9.927500000000000213e+00 -8.599799999999999667e-01 4.847610000000000419e+00 1.054659999999999975e+01 8.809350000000000236e+00 3.060290000000000177e+00 1.033649999999999958e+00 1.020320000000000071e+01 8.167719999999999203e+00 4.964500000000000024e-01 3.149399999999999977e-01 1.828040000000000109e+00 9.984159999999999258e+00 2.232689999999999841e+00 7.761549999999999727e+00 1.059179999999999922e+01 1.164770000000000039e+01 1.731319999999999970e+00 2.225680000000000103e+00 1.309590000000000032e+01 8.147919999999999163e+00 2.194049999999999834e+00 -2.652890000000000192e+00 2.599889999999999812e+00 8.890150000000000219e+00 -4.930399999999999783e-01 7.888950000000000351e+00 8.614039999999999253e+00