-3.841990271999999891e+02
-3.856150536700000089e+02
-3.868077955800000041e+02
-3.867410605200000191e+02
-3.870886284200000205e+02
-3.866207520799999884e+02
-3.860978380799999741e+02
-3.863220963900000129e+02
-3.861009838599999853e+02
-3.862351330700000176e+02
-3.863820200999999770e+02
-3.864066415600000255e+02
-3.860372833999999784e+02
-3.858959674700000164e+02
-3.857679906299999857e+02
-3.860683956299999977e+02
-3.861084987599999749e+02
-3.859337630900000136e+02
-3.857614930699999718e+02
-3.853694653100000096e+02
-3.855287188500000184e+02
-3.853626046599999881e+02
-3.855095404699999904e+02
-3.854194654699999774e+02
-3.856555515200000173e+02
-3.858458753200000046e+02
-3.857355157000000077e+02
-3.860456193499999813e+02
-3.856754047000000014e+02
-3.861358154600000034e+02
-3.864897015099999749e+02
-3.854077765200000272e+02
-3.852580063699999755e+02
-3.850518944300000044e+02
-3.849317162899999971e+02
-3.851244282000000112e+02
-3.855203590899999995e+02
-3.856833881200000178e+02
-3.848964000600000190e+02
-3.849601264699999774e+02
-3.854141885299999899e+02
-3.852056127999999831e+02
-3.849237199099999884e+02
-3.847257933999999864e+02
-3.844136528899999803e+02
-3.849130309199999829e+02
-3.844027135499999872e+02
-3.850039218900000151e+02
-3.846969002299999829e+02
-3.843717391299999804e+02
-3.839099619799999914e+02
-3.841117442999999980e+02
-3.846118806599999971e+02
-3.845632279700000140e+02
-3.850129715900000065e+02
-3.844051509600000145e+02
-3.835281489600000100e+02
-3.838293674399999986e+02
-3.840126045999999747e+02
-3.841185605699999996e+02
-3.844113583500000004e+02
-3.837972827799999891e+02
-3.836909411199999909e+02
-3.834279949200000033e+02
-3.845480942500000197e+02
-3.839264803400000119e+02
-3.838421732799999972e+02
-3.834753497099999890e+02
-3.833579889600000001e+02
-3.838356876099999795e+02
-3.827072141599999782e+02
-3.834803016600000092e+02
-3.825637735099999759e+02
-3.823224835600000233e+02
-3.835112687399999913e+02
-3.836239901100000225e+02
-3.831038793000000169e+02
-3.838422475200000008e+02
-3.836625883400000134e+02
-3.830923296999999934e+02
-3.822426851700000157e+02
-3.814932480800000008e+02
-3.816546833799999945e+02
-3.822665163300000017e+02
-3.832595899799999870e+02
-3.820376280400000155e+02
-3.825919796399999768e+02
-3.823831345899999974e+02
-3.817416101100000105e+02
-3.822280170700000212e+02
-3.821118251299999997e+02
-3.818916470199999935e+02
-3.809052403300000265e+02
-3.817803471999999942e+02
-3.813593246300000033e+02
-3.813018261000000280e+02
-3.823143693600000006e+02
-3.822156724800000234e+02
-3.812185603799999853e+02
-3.794625906599999894e+02
-3.806951257299999725e+02
-3.809459060199999954e+02
-3.814822124600000279e+02
-3.819276123099999722e+02
-3.823826971400000048e+02
-3.794599469099999851e+02
-3.804526006400000142e+02
-3.799218604100000221e+02
-3.801803493799999956e+02
-3.805511747900000046e+02
-3.809562141900000256e+02
-3.808399304399999892e+02
-3.796185514499999840e+02
-3.787490271500000176e+02
-3.803672606299999757e+02
-3.796509726099999966e+02
-3.808527212999999847e+02
-3.806116027599999825e+02
-3.792107682299999851e+02
-3.784422933100000250e+02
-3.791776017500000080e+02
-3.794165207600000258e+02
-3.782835674699999799e+02
-3.782203584399999841e+02
-3.800876497699999845e+02
-3.791359017799999833e+02
-3.802874634699999774e+02
-3.791809196099999895e+02
-3.789271254700000213e+02
-3.787703452900000229e+02
-3.789317076599999723e+02
-3.784784741999999937e+02
-3.788043612299999836e+02
-3.792940786699999762e+02
-3.783044685200000004e+02
-3.780655965700000252e+02
-3.788050511999999799e+02
-3.792524086199999829e+02
-3.789147515899999803e+02
-3.798321285100000182e+02
-3.800778851900000177e+02
-3.796318254799999750e+02
-3.798898007299999904e+02
-3.769889304399999901e+02
-3.778223506699999916e+02
-3.782824269399999935e+02
-3.791839401400000042e+02
-3.791121475599999826e+02
-3.786693206099999998e+02
-3.782969142100000113e+02
-3.770496677300000101e+02
-3.788140319199999908e+02
-3.772641645200000085e+02
-3.759646501400000034e+02
-3.771283890299999939e+02
-3.774531175600000097e+02
-3.769666745600000013e+02
-3.761356205899999736e+02
-3.776461775199999806e+02
-3.751732235399999809e+02
-3.754427061499999922e+02
-3.762429345900000044e+02
-3.762753974899999889e+02
-3.762093435300000124e+02
-3.766718523299999788e+02
-3.769904217999999787e+02
-3.764726432699999918e+02
-3.749631224400000065e+02
-3.744924573499999951e+02
-3.751500193399999716e+02
-3.746949040000000082e+02
-3.782849399899999980e+02
-3.757663300599999729e+02
-3.755597794799999747e+02
-3.767471670200000062e+02
-3.769719764800000235e+02
-3.774987786500000198e+02
-3.775858712200000014e+02
-3.767553954699999963e+02
-3.754291851500000234e+02
-3.759282469799999831e+02
-3.777035044799999923e+02
-3.771415325899999971e+02
-3.760575288800000067e+02
-3.759695600100000092e+02
-3.740927776899999913e+02
-3.756324801499999921e+02
-3.759539058299999965e+02
-3.778113177199999768e+02
-3.776622921499999848e+02
-3.781619056900000260e+02
-3.742486949999999979e+02
-3.754901349599999776e+02
-3.752981662500000084e+02
-3.762725324599999794e+02
-3.741725717200000076e+02
-3.741846092900000258e+02
-3.753440594599999827e+02
-3.756700175299999955e+02
-3.762314098900000090e+02
