-1.752460000000000129e-01 -2.836380000000000012e-01 2.923660000000000148e-01 -4.780960000000000210e-01 -9.511400000000000410e-02 -1.579309999999999881e-01 4.244280000000000275e-01 -2.488130000000000064e-01 3.207900000000000335e-02 -3.212149999999999728e-01 -4.453399999999999720e-02 6.928000000000000130e-03 1.863799999999999901e-01 8.572100000000000553e-02 3.923980000000000246e-01 4.063160000000000105e-01 -7.115000000000000213e-01 5.711540000000000505e-01 -3.373610000000000220e-01 1.702549999999999897e-01 3.972019999999999995e-01 7.570200000000000540e-02 -3.647699999999999831e-01 -5.331600000000000228e-02 3.758739999999999859e-01 3.768099999999999922e-02 -2.360800000000000121e-01 2.681000000000000050e-02 2.453480000000000105e-01 -2.519319999999999893e-01 -3.448910000000000031e-01 1.147279999999999966e-01 3.226849999999999996e-01 1.848370000000000013e-01 -9.576199999999999990e-02 3.310699999999999754e-01 -4.597699999999999704e-02 3.019799999999999915e-02 8.877799999999999581e-02 -4.953599999999999670e-02 -7.852800000000000058e-02 3.667639999999999789e-01 1.062639999999999973e-01 -8.198199999999999932e-02 -1.187420000000000003e-01 -9.426199999999999857e-02 1.122829999999999939e-01 5.812099999999999905e-02 4.164109999999999756e-01 2.854639999999999955e-01 1.369509999999999894e-01 8.162800000000000611e-02 2.731199999999999739e-01 -1.426200000000000037e-02 3.320520000000000138e-01 1.233920000000000017e-01 -1.155930000000000013e-01 -4.972099999999999853e-01 -2.717780000000000196e-01 1.205809999999999937e-01 -1.354229999999999878e-01 4.657499999999999835e-02 -2.215679999999999872e-01 2.737080000000000068e-01 -1.351239999999999941e-01 -2.483799999999999897e-02 -1.306019999999999959e-01 6.147299999999999986e-02 7.921499999999999375e-02 3.002000000000000154e-02 -1.645800000000000041e-01 -2.946299999999999961e-02 -2.193539999999999934e-01 -3.464579999999999882e-01 -4.980899999999999911e-02 1.771340000000000137e-01 -6.458899999999999364e-02 -1.726689999999999892e-01 3.413999999999999674e-02 -2.115999999999999825e-03 5.584459999999999980e-01 4.965959999999999819e-01 -2.182000000000000051e-01 -3.994300000000000073e-01 2.772809999999999997e-01 -8.519419999999999771e-01 6.765000000000000180e-03 4.645059999999999745e-01 -3.898349999999999871e-01 -1.233429000000000109e+00 -4.166150000000000131e-01 -9.673890000000000544e-01 -8.973430000000000017e-01 -2.563738999999999990e+00 1.761300000000000088e+00 4.835699999999999721e-02 1.051898000000000000e+00 7.462400000000000144e-01 -1.656255999999999950e+00 1.465660000000000018e-01 -1.754310000000000036e+00 -2.858919999999999795e-01 3.304830000000000267e-01 -9.601619999999999600e-01 -6.070919999999999650e-01 1.052056000000000102e+00 -1.342799999999999994e+00 1.158133999999999997e+00 8.540259999999999518e-01 1.859223999999999988e+00 1.116749999999999909e+00 3.855239999999999778e-01 -1.974710000000000076e-01 -5.468039999999999567e-01 3.420619999999999772e-01 -8.572180000000000355e-01 1.083916000000000102e+00 2.224019999999999886e-01 1.235807000000000100e+00 -6.185699999999999532e-01 -5.969370000000000509e-01 -2.723240000000000105e-01 4.566499999999999726e-02 -4.270000000000000358e-03 2.085869999999999946e-01 -4.058359999999999745e-01 1.084399999999999947e-01 1.226434999999999942e+00 8.352330000000000032e-01 -8.419300000000000395e-02 -3.264139999999999819e-01 -5.121740000000000181e-01 7.147240000000000260e-01 1.260700000000000015e-02 -5.505459999999999798e-01 -3.160859999999999781e-01 3.836919999999999775e-01 7.884729999999999794e-01 6.986199999999999355e-02 -1.345089999999999897e-01 2.292599999999999916e-01 8.060799999999999910e-02 1.475259999999999905e-01 5.066760000000000153e-01 5.257899999999999796e-01 8.595899999999999375e-02 9.267400000000000637e-02 1.840880000000000016e-01 4.501930000000000098e-01 -2.616789999999999949e-01 -2.177000000000000116e-03 -8.899749999999999606e-01 7.571080000000000032e-01 -9.464899999999999702e-02 -1.038420000000000037e-01 1.550799999999999956e-01 -1.617038999999999893e+00 6.324189999999999534e-01 7.273169999999999913e-01 7.553400000000000392e-02 9.233519999999999506e-01 1.110198999999999936e+00 -4.597899999999999765e-01 7.255190000000000250e-01 3.949509999999999965e-01 2.165484999999999882e+00 -4.582399999999999807e-01 6.056749999999999634e-01 3.453910000000000036e-01 -4.825200000000000045e-01 1.037560000000000010e-01 -1.397599999999999953e-01 2.707999999999999904e-03 3.754759999999999764e-01 -8.748059999999999725e-01 -9.158600000000000074e-02 -1.472110000000000085e-01 -1.352468999999999921e+00 1.178226999999999913e+00 -2.823919999999999764e-01 -1.556450000000000056e-01 -3.089000000000000079e-02 1.996680000000000121e-01 -1.901750000000000107e-01 -1.549659999999999926e-01 -1.218179999999999957e-01 -1.532850000000000046e-01 -7.492000000000000395e-03 -8.804729999999999501e-01 2.536889999999999978e-01 3.102360000000000118e-01 3.651619999999999866e-01 5.978780000000000205e-01 1.377393000000000089e+00 -6.942490000000000050e-01 -9.217710000000000070e-01 -2.731770000000000032e-01 3.631280000000000063e-01 3.046139999999999959e-01 -4.035139999999999838e-01 -3.213759999999999950e-01 -4.387220000000000009e-01 1.287465000000000082e+00 -9.154280000000000195e-01 3.958800000000000097e-01 2.903359999999999830e-01 -1.383102000000000054e+00 -4.677169999999999939e-01 -9.690000000000000002e-02 4.024280000000000079e-01 4.927739999999999898e-01 6.767959999999999532e-01 -9.271169999999999689e-01 7.542300000000000393e-02 -3.442230000000000012e-01 7.266040000000000276e-01 6.424799999999999955e-02 7.151849999999999596e-01 6.038799999999999724e-02 -9.339819999999999789e-01 -1.284583000000000030e+00 1.831770000000000065e-01 6.810800000000000187e-02 -2.338749999999999996e-01 4.223259999999999792e-01 9.730099999999999860e-02 -8.725299999999999723e-02 -1.538339999999999985e-01 -2.461440000000000017e-01 -3.592190000000000105e-01 6.851000000000000319e-03 3.508629999999999804e-01 -3.141570000000000196e-01 -8.009600000000000053e-02 -6.484280000000000044e-01 4.160710000000000242e-01 -2.677729999999999833e-01 -3.425719999999999876e-01 -1.238950000000000051e-01 -3.003549999999999831e-01 6.235700000000000270e-02 -4.703129999999999811e-01 -2.792060000000000097e-01 5.004700000000000121e-02 1.947899999999999979e-02 2.297299999999999898e-01 -1.060969999999999969e-01 -1.558940000000000048e-01 -4.736830000000000207e-01 1.180329999999999990e-01 -6.306220000000000159e-01 -2.062970000000000081e-01
-1.200979999999999964e-01 -1.593430000000000124e-01 -1.857449999999999934e-01 -1.993899999999999839e-02 -1.183420000000000027e-01 -3.590800000000000242e-02 1.109779999999999933e-01 -1.027369999999999950e-01 -1.239989999999999981e-01 3.983229999999999826e-01 1.984549999999999925e-01 3.095699999999999841e-02 -3.443100000000000327e-02 1.117520000000000041e-01 -5.260259999999999936e-01 -3.726399999999999851e-02 1.980989999999999973e-01 -1.444499999999999951e-01 -1.798800000000000121e-01 2.147280000000000022e-01 -1.005600000000000070e-02 -1.565819999999999990e-01 6.998600000000000654e-02 4.589000000000000197e-03 7.779700000000000504e-02 2.890300000000000091e-01 4.449560000000000182e-01 -6.865400000000000669e-02 -7.954500000000000459e-02 -8.265700000000000269e-01 4.983400000000000329e-02 7.807899999999999563e-02 -2.979459999999999886e-01 4.648329999999999962e-01 -1.841629999999999934e-01 2.118480000000000085e-01 7.523799999999999932e-02 1.204139999999999933e-01 -1.447799999999999920e-01 5.169200000000000184e-02 2.301209999999999922e-01 1.195099999999999982e-02 1.454429999999999890e-01 1.420780000000000098e-01 -3.013089999999999935e-01 3.879759999999999875e-01 -2.527340000000000142e-01 2.792169999999999930e-01 -3.931689999999999907e-01 -1.807410000000000128e-01 9.840000000000000656e-04 3.046249999999999791e-01 2.186609999999999943e-01 -6.056399999999999978e-02 -5.184100000000000374e-01 -1.937989999999999990e-01 -1.953580000000000039e-01 -2.661399999999999877e-01 -6.907199999999999451e-02 2.729610000000000092e-01 -2.819199999999999831e-02 -3.192600000000000299e-02 -8.180400000000000171e-02 -2.908569999999999767e-01 3.961000000000000111e-03 -5.733699999999999908e-02 9.876400000000000456e-02 -8.782999999999999141e-03 2.530069999999999819e-01 2.605850000000000111e-01 -1.599399999999999988e-01 8.080199999999999882e-02 2.226430000000000076e-01 -1.945840000000000070e-01 -1.718929999999999902e-01 -7.251999999999999766e-03 8.863200000000000245e-02 1.151520000000000044e-01 -1.091939999999999994e-01 -6.521499999999999519e-02 1.766989999999999950e-01 -3.637929999999999775e-01 -3.820300000000000085e-02 2.174800000000000066e-01 6.093300000000000105e-02 -8.936100000000000154e-01 8.193799999999999695e-02 -3.284540000000000237e-01 -5.018909999999999760e-01 -1.290729999999999933e+00 1.490460000000000118e-01 -5.049160000000000315e-01 -4.993299999999999822e-02 7.755370000000000319e-01 7.224340000000000206e-01 -1.050593000000000110e+00 5.962380000000000457e-01 4.792009999999999881e-01 3.867789999999999839e-01 7.902970000000000272e-01 9.966920000000000224e-01 -9.842099999999999460e-02 -1.355175000000000018e+00 2.898209999999999953e-01 2.846150000000000069e-01 -7.660649999999999959e-01 3.225540000000000074e-01 -6.704999999999999849e-01 -6.701369999999999827e-01 -9.116999999999999549e-01 2.630199999999999760e-01 -3.790700000000000180e-01 -5.316400000000000292e-02 8.234599999999999698e-01 -9.605759999999999854e-01 7.999169999999999892e-01 -1.007462999999999997e+00 -6.407899999999999707e-01 -7.816980000000000040e-01 2.472810000000000008e-01 -2.774700000000000083e-02 -1.567669999999999897e-01 -4.088999999999999753e-03 2.187669999999999892e-01 2.164139999999999953e-01 1.006920000000000037e-01 4.829060000000000019e-01 1.210419999999999968e-01 -2.683269999999999822e-01 -2.243449999999999889e-01 3.339269999999999738e-01 -3.140109999999999846e-01 6.657800000000000384e-01 2.351989999999999914e-01 -5.808389999999999942e-01 -1.363429999999999920e-01 1.086219999999999963e-01 7.799369999999999914e-01 -3.937200000000000144e-01 -3.558520000000000016e-01 4.341760000000000064e-01 -1.066767999999999939e+00 -1.809449999999999947e-01 1.230577999999999950e+00 -7.021999999999999596e-03 5.104290000000000216e-01 2.611760000000000193e-01 -9.819999999999999563e-02 7.196810000000000151e-01 -8.186499999999999333e-02 -2.189669999999999950e-01 -2.187639999999999862e-01 -3.080209999999999892e-01 1.682869999999999922e-01 -7.324100000000000055e-02 -1.232250000000000012e-01 -3.468860000000000277e-01 2.213469999999999882e-01 6.002309999999999590e-01 -5.338150000000000395e-01 -6.096829999999999750e-01 -7.532489999999999464e-01 -1.630220000000000002e-01 1.297306999999999988e+00 3.276379999999999848e-01 7.691769999999999996e-01 2.260200000000000056e-02 4.052560000000000051e-01 -2.430400000000000060e-01 -4.395530000000000270e-01 -3.691130000000000244e-01 5.093809999999999727e-01 -7.534009999999999874e-01 4.141279999999999961e-01 9.233139999999999681e-01 -5.405999999999999694e-02 -1.955089999999999884e-01 5.662709999999999688e-01 5.586399999999999699e-02 4.606799999999999784e-02 -1.543019999999999947e-01 -6.249430000000000263e-01 -2.549939999999999984e-01 -5.153649999999999620e-01 2.669429999999999858e-01 5.433580000000000076e-01 2.582200000000000120e-02 3.855100000000000193e-02 -8.347400000000000653e-02 4.236659999999999870e-01 -8.545000000000000512e-03 -9.392559999999999798e-01 -5.198739999999999473e-01 3.367400000000000254e-02 1.773109999999999964e-01 -4.565980000000000039e-01 2.509199999999999764e-01 -3.095269999999999966e-01 2.917300000000000101e-02 -5.162579999999999947e-01 7.148349999999999982e-01 -8.343499999999999528e-02 -1.687189999999999968e+00 1.075269999999999976e-01 3.548419999999999908e-01 -1.826799999999999952e-02 4.578900000000000331e-02 1.003599999999999978e-02 -1.139000000000000038e-03 -8.234500000000000153e-02 6.423330000000000428e-01 2.653889999999999860e-01 3.416719999999999757e-01 3.534379999999999744e-01 2.927469999999999795e-01 -6.594379999999999686e-01 3.564010000000000233e-01 -8.974100000000000132e-02 -1.302879999999999872e-01 3.387339999999999796e-01 8.640219999999999567e-01 1.129290000000000016e-01 5.519600000000000201e-02 -4.144099999999999867e-02 6.603499999999999648e-02 -5.013159999999999838e-01 -7.592200000000000060e-01 5.013339999999999463e-01 5.598910000000000275e-01 1.847419999999999896e-01 4.417740000000000000e-01 8.609090000000000353e-01 4.498679999999999901e-01 -2.812919999999999865e-01 -3.414299999999999974e-02 -1.065579999999999999e-01 -3.587599999999999817e-02 -2.113520000000000121e-01 3.914659999999999807e-01 9.574540000000000273e-01 -3.295409999999999728e-01 1.487839999999999996e-01 -7.257700000000000262e-02 -1.931259999999999921e-01 -3.565900000000000181e-01 -8.595009999999999595e-01 5.857670000000000377e-01 8.902000000000000191e-03 8.485939999999999594e-01 2.321789999999999965e-01 -7.479199999999999737e-02 3.920159999999999756e-01
7.186399999999999733e-02 4.359600000000000281e-02 -2.824840000000000129e-01 1.438359999999999916e-01 5.502599999999999852e-02 -1.703629999999999867e-01 7.899200000000000665e-02 2.656200000000000228e-01 -1.295999999999999930e-01 2.426810000000000078e-01 -9.102200000000000568e-02 6.949500000000000122e-02 5.272999999999999909e-02 -1.399999999999999979e-05 -4.259330000000000060e-01 1.304069999999999951e-01 2.197449999999999959e-01 -1.123790000000000067e-01 -1.908130000000000104e-01 8.182749999999999746e-01 -2.789429999999999965e-01 -8.589199999999999613e-02 1.694309999999999983e-01 7.362699999999999800e-02 4.451820000000000221e-01 -1.762029999999999985e-01 -2.285880000000000134e-01 -7.474699999999999400e-02 -1.814000000000000074e-03 1.164089999999999986e-01 9.066799999999999859e-02 -1.170429999999999943e-01 2.623599999999999891e-02 -6.288799999999999946e-02 6.456099999999999339e-02 -2.606339999999999768e-01 -1.487719999999999876e-01 9.441599999999999993e-02 -3.428829999999999933e-01 -2.764440000000000230e-01 2.517739999999999978e-01 -1.315040000000000098e-01 7.135999999999999982e-03 2.090400000000000036e-01 -1.775980000000000059e-01 -1.357490000000000085e-01 8.812799999999999800e-02 -1.036929999999999935e-01 -3.759159999999999724e-01 -3.902209999999999845e-01 -1.504999999999999949e-01 1.694009999999999960e-01 3.673799999999999982e-02 -3.311299999999999660e-02 -3.006999999999999951e-02 1.921390000000000042e-01 -3.732000000000000074e-03 -2.451000000000000054e-03 7.961200000000000221e-02 9.206200000000000494e-02 1.689579999999999971e-01 -2.969000000000000111e-02 -1.753400000000000097e-02 -1.586200000000000110e-01 -1.261929999999999996e-01 6.380700000000000260e-02 1.056850000000000012e-01 -4.279100000000000265e-02 1.831289999999999862e-01 -8.690299999999999414e-02 9.702800000000000313e-02 -5.367840000000000389e-01 -4.636200000000000043e-02 -1.601400000000000046e-02 1.697859999999999925e-01 2.464300000000000171e-02 6.805100000000000038e-02 -4.190579999999999861e-01 5.774999999999999752e-03 -1.856500000000000164e-02 -1.096069999999999961e-01 -2.884920000000000262e-01 3.674299999999999788e-02 1.495599999999999985e-01 8.994099999999999318e-02 -6.721629999999999550e-01 3.746680000000000010e-01 2.542300000000000115e-02 -4.341099999999999820e-02 2.554640000000000244e-01 -3.759649999999999936e-01 6.486690000000000511e-01 7.610959999999999948e-01 4.319029999999999814e-01 -1.366110000000000102e-01 -4.212380000000000013e-01 -6.840289999999999981e-01 -6.511740000000000306e-01 7.480210000000000470e-01 -7.569199999999999540e-02 4.165399999999999658e-02 3.489099999999999840e-02 1.591660000000000019e-01 -2.945989999999999998e-01 2.486619999999999941e-01 -1.784129999999999883e-01 -4.416649999999999743e-01 -9.709399999999999975e-02 -5.585069999999999757e-01 -1.226870000000000044e-01 -3.634359999999999813e-01 1.862949999999999884e-01 -1.277459999999999984e-01 -1.825009999999999966e-01 3.935850000000000182e-01 -4.500529999999999808e-01 -6.580279999999999463e-01 3.649100000000000260e-02 -3.678230000000000111e-01 4.349450000000000260e-01 7.158599999999999686e-02 3.556219999999999937e-01 -2.646950000000000136e-01 3.762399999999999772e-02 -2.065790000000000126e-01 -1.088530000000000053e-01 -2.152600000000000000e-02 -3.364199999999999829e-02 -5.336149999999999505e-01 1.059810000000000058e-01 5.779689999999999550e-01 1.328229000000000104e+00 -7.257000000000000429e-03 -1.477650000000000075e-01 3.918809999999999794e-01 4.038129999999999775e-01 -8.106299999999999617e-02 -1.871559999999999890e-01 5.843699999999999450e-01 3.568589999999999818e-01 -3.558810000000000029e-01 -3.234360000000000013e-01 -1.590209999999999957e-01 -4.756420000000000092e-01 3.574499999999999900e-02 -1.022399999999999975e-01 -5.053200000000000053e-02 2.405909999999999993e-01 2.953939999999999899e-01 2.748700000000000102e-02 -1.204169999999999963e-01 -5.931530000000000413e-01 5.075699999999999656e-02 1.275040000000000062e-01 -9.189230000000000453e-01 3.886299999999999755e-01 1.172239999999999949e-01 4.696700000000000180e-02 1.596090000000000009e-01 -5.436119999999999841e-01 1.300040000000000084e-01 -4.186670000000000114e-01 1.173069999999999946e-01 2.366969999999999907e-01 5.638670000000000071e-01 -9.188000000000000334e-02 -7.949599999999999722e-02 1.120310000000000056e-01 9.209699999999999831e-02 -9.972100000000000408e-02 2.263199999999999934e-02 1.024569000000000063e+00 7.804400000000000226e-02 1.237069999999999975e-01 -5.590469999999999606e-01 7.251689999999999525e-01 7.099099999999999855e-02 -5.661909999999999998e-01 -1.531279999999999863e-01 2.752299999999999747e-01 1.568740000000000134e-01 -3.236930000000000085e-01 -6.716379999999999573e-01 -5.410019999999999829e-01 -3.543939999999999868e-01 4.159439999999999804e-01 1.677520000000000122e-01 1.531329999999999913e-01 -3.928269999999999817e-01 3.310569999999999902e-01 -1.428679999999999950e-01 -1.449689999999999868e-01 5.407429999999999737e-01 4.847040000000000237e-01 -7.402000000000000246e-02 2.888430000000000164e-01 2.240790000000000004e-01 -1.141749999999999987e-01 -2.841159999999999797e-01 3.691550000000000109e-01 -5.883000000000000208e-03 4.800010000000000110e-01 -7.250320000000000098e-01 4.365689999999999849e-01 -1.037089999999999956e-01 1.613680000000000114e-01 7.934309999999999974e-01 -9.582699999999999552e-02 4.077299999999999675e-02 -3.168070000000000053e-01 -9.286700000000000510e-02 1.106889999999999957e-01 4.564819999999999989e-01 4.716890000000000249e-01 2.581809999999999938e-01 -1.477569999999999995e-01 -1.776929999999999898e-01 1.492080000000000073e-01 1.995359999999999912e-01 -6.919100000000000250e-02 -4.276000000000000287e-03 -2.823680000000000079e-01 -1.571099999999999997e-01 -8.271299999999999486e-02 -3.953600000000000170e-02 -1.449040000000000050e-01 2.430849999999999955e-01 3.082509999999999972e-01 3.509800000000000142e-01 -4.788300000000000195e-02 -6.457000000000000239e-02 -2.666160000000000196e-01 -7.025199999999999501e-02 1.796210000000000029e-01 -2.491939999999999988e-01 -3.996640000000000192e-01 2.577740000000000031e-01 -4.605560000000000209e-01 1.237540000000000029e-01 -1.477729999999999877e-01 1.861740000000000061e-01 4.355699999999999850e-02 -3.477800000000000336e-02 2.335059999999999913e-01 2.916999999999999888e-03 3.630929999999999991e-01 -6.138540000000000108e-01 4.291300000000000114e-01 3.254540000000000211e-01 9.993499999999999606e-02 -3.368999999999999773e-02 -5.836940000000000461e-01
-4.034079999999999888e-01 -3.039299999999999988e-02 -1.484199999999999929e-02 -4.467100000000000237e-02 -4.091000000000000192e-02 -2.564629999999999965e-01 -1.944039999999999935e-01 -8.923000000000000376e-02 1.811730000000000007e-01 7.839400000000000535e-02 2.708699999999999997e-02 8.786900000000000266e-02 9.860800000000000121e-02 6.237499999999999989e-02 2.715310000000000223e-01 -6.691999999999999338e-02 3.740600000000000175e-02 2.642430000000000057e-01 -2.292319999999999913e-01 2.662959999999999772e-01 4.497160000000000046e-01 1.336279999999999968e-01 -2.359930000000000083e-01 2.177840000000000054e-01 3.401910000000000212e-01 -2.120920000000000027e-01 -7.818999999999999562e-02 -1.206590000000000024e-01 1.308100000000000096e-01 2.686939999999999884e-01 -1.379400000000000071e-02 -1.703000000000000087e-03 2.321030000000000038e-01 -7.062999999999999834e-03 5.095500000000000029e-02 5.070500000000000007e-02 -1.996110000000000106e-01 3.302899999999999725e-01 -1.240799999999999959e-01 1.032509999999999956e-01 8.583699999999999664e-02 1.965590000000000115e-01 9.765699999999999381e-02 -6.488900000000000223e-02 9.909999999999999105e-04 -6.676200000000000190e-02 1.880439999999999889e-01 -2.298929999999999862e-01 2.405329999999999968e-01 -1.545449999999999879e-01 -2.377869999999999984e-01 -4.493699999999999778e-02 -2.565040000000000098e-01 4.458999999999999769e-02 3.949509999999999965e-01 5.555600000000000122e-02 -1.644239999999999868e-01 2.131309999999999871e-01 -1.073080000000000006e-01 -1.258730000000000127e-01 1.432390000000000052e-01 -7.428999999999999840e-03 -7.146199999999999775e-02 -3.355199999999999849e-01 -1.956849999999999978e-01 1.084099999999999994e-02 -1.990300000000000055e-02 -7.308299999999999519e-02 2.492209999999999981e-01 1.329990000000000061e-01 -6.265999999999999868e-03 -4.426550000000000207e-01 -1.608739999999999892e-01 -2.970100000000000171e-02 -8.396099999999999397e-02 -1.828239999999999865e-01 -5.767800000000000010e-02 1.323650000000000104e-01 -3.667399999999999827e-02 -1.522409999999999874e-01 -1.997250000000000136e-01 6.433200000000000029e-02 1.393290000000000084e-01 -4.652699999999999891e-02 -5.570739999999999581e-01 3.814690000000000025e-01 -1.955429999999999946e-01 -3.008219999999999783e-01 4.484029999999999960e-01 1.168309999999999960e+00 2.099999999999999870e-03 3.002200000000000008e-02 5.421399999999999553e-01 6.049609999999999710e-01 -2.672550000000000203e-01 9.911109999999999642e-01 -3.019910000000000094e-01 -1.742039999999999977e-01 -6.305700000000000194e-02 -3.943289999999999851e-01 -9.356649999999999689e-01 5.844150000000000178e-01 4.381740000000000079e-01 -1.857179999999999942e-01 -1.048564000000000052e+00 -1.683910000000000129e-01 -8.503249999999999975e-01 3.852059999999999929e-01 8.624380000000000379e-01 3.567339999999999955e-01 1.326400000000000079e-01 4.083629999999999760e-01 1.589440000000000019e-01 -3.639479999999999937e-01 3.819460000000000077e-01 1.631879999999999997e-01 1.020834999999999937e+00 -2.894090000000000273e-01 5.647889999999999855e-01 -1.138671999999999906e+00 -1.688290000000000068e-01 -1.522599999999999995e-02 1.020179999999999976e-01 -1.035380000000000050e-01 2.093619999999999925e-01 -3.390940000000000065e-01 -1.689479999999999871e-01 -4.237540000000000195e-01 4.246099999999999874e-02 -7.627000000000000446e-02 -6.582519999999999483e-01 -3.945790000000000131e-01 2.120060000000000000e-01 -1.632450000000000012e-01 3.149350000000000205e-01 4.707109999999999905e-01 -4.401599999999999957e-02 -3.081220000000000070e-01 1.771230000000000027e-01 2.783669999999999756e-01 -6.073020000000000085e-01 2.920900000000000163e-01 2.074459999999999915e-01 -5.466039999999999788e-01 1.883360000000000034e-01 -1.964879999999999960e-01 -5.775609999999999911e-01 6.116049999999999542e-01 -2.957750000000000101e-01 3.472999999999999698e-02 -2.541539999999999910e-01 9.272700000000000387e-02 2.032399999999999832e-02 -1.818670000000000009e-01 -1.938300000000000092e-02 -3.519059999999999966e-01 -5.358199999999999769e-02 -9.449000000000000801e-03 -2.124929999999999874e-01 2.813030000000000252e-01 2.422539999999999971e-01 -2.842210000000000014e-01 2.335139999999999993e-01 6.473299999999999887e-02 -1.263700000000000066e-02 -5.270040000000000280e-01 2.986650000000000138e-01 2.642749999999999821e-01 2.662809999999999899e-01 2.965530000000000110e-01 1.747499999999999887e-01 2.996800000000000158e-02 6.494079999999999853e-01 1.557900000000000083e-02 -4.928080000000000238e-01 1.201640000000000069e-01 2.118839999999999890e-01 -6.673059999999999548e-01 -1.697450000000000070e-01 5.010329999999999506e-01 2.805159999999999876e-01 2.172290000000000054e-01 1.990989999999999982e-01 1.050090000000000051e-01 3.766599999999999948e-01 -4.934299999999999797e-02 7.467829999999999746e-01 2.605199999999999738e-01 -4.724220000000000086e-01 -3.290799999999999975e-02 -5.267009999999999748e-01 4.144970000000000043e-01 -2.151800000000000102e-01 4.541599999999999804e-02 -7.020870000000000166e-01 -1.011630000000000029e-01 -1.115509999999999974e-01 4.690099999999999825e-02 7.036599999999999799e-02 3.931160000000000210e-01 -4.704479999999999773e-01 -1.010489999999999999e-01 8.121890000000000498e-01 -5.169100000000000084e-02 -3.463760000000000172e-01 -4.638699999999999768e-02 6.670199999999999740e-02 -2.299400000000000055e-02 -1.464060000000000084e-01 -3.078879999999999950e-01 -1.228230000000000016e-01 -7.235000000000000112e-03 -2.194290000000000129e-01 -6.678629999999999844e-01 -1.479560000000000042e-01 6.389230000000000187e-01 -1.923070000000000057e-01 -6.923799999999999399e-02 2.729539999999999744e-01 4.431299999999999822e-02 -8.305040000000000200e-01 -9.373489999999999878e-01 1.332339999999999913e-01 1.978949999999999876e-01 5.533780000000000365e-01 -1.593019999999999992e-01 4.607699999999999990e-02 -8.261000000000000287e-02 -1.856250000000000122e-01 -6.512500000000000233e-02 2.381520000000000026e-01 -3.713549999999999907e-01 -6.169199999999999684e-02 3.025059999999999971e-01 2.848470000000000169e-01 -2.993160000000000265e-01 -4.573679999999999968e-01 8.218879999999999519e-01 -6.451999999999999402e-02 -6.323889999999999789e-01 -8.113900000000000279e-02 1.672009999999999885e-01 -1.639170000000000071e-01 1.046949999999999964e-01 1.748329999999999884e-01 5.636130000000000306e-01 -5.088489999999999958e-01 1.687369999999999981e-01 -1.437699999999999916e-02 -1.509749999999999981e-01 -2.963040000000000118e-01 6.197500000000000231e-01