1.064181954809902564e+01 4.345687510606988796e-02 -3.573199416183598043e+00 4.345687510606988796e-02 1.007858512268281537e+01 1.795662103691827660e+00 -3.573199416183598043e+00 1.795662103691827660e+00 2.017734872749803188e+01
1.299425470054728748e+01 -1.769603478182392164e+00 -8.579022627660656042e+00 -1.769603478182392164e+00 4.722520422249013028e-02 1.656224239162899847e+00 -8.579022627660656042e+00 1.656224239162899847e+00 1.465121516853498917e+01
6.560748176680044175e+00 -2.424130277874037009e-01 -1.538640746064933618e+00 -2.424130277874037009e-01 6.287384476586824533e+00 1.806657099956961110e+00 -1.538640746064933618e+00 1.806657099956961110e+00 1.444825819342413986e+01
1.211450000379453584e+01 8.234138172126482993e-04 -4.340088296649943445e+00 8.234138172126482993e-04 1.793935840842094720e+01 2.920726307424295509e+00 -4.340088296649943445e+00 2.920726307424295509e+00 1.690868648980518785e+01
1.528679376320936356e+01 -5.899517819794151130e+00 -3.308825457530064185e+00 -5.899517819794151130e+00 1.735159593847318149e+01 -2.498334393636965078e-01 -3.308825457530064185e+00 -2.498334393636965078e-01 1.772384679440294875e+01
1.316110740157870751e+01 2.243221418621728525e+00 -1.642487759247517110e+00 2.243221418621728525e+00 1.159744456269188895e+01 1.101592066331217756e+00 -1.642487759247517110e+00 1.101592066331217756e+00 2.141897926608367442e+01
1.014697690561836119e+01 1.528469163617012683e+00 -3.296483937493253524e+00 1.528469163617012683e+00 1.614673809224211709e+01 1.736831608257328741e+00 -3.296483937493253524e+00 1.736831608257328741e+00 2.259382610048267992e+01
1.153720942015743844e+01 -2.108220301484369674e+00 -4.494764160407994424e+00 -2.108220301484369674e+00 1.001374854999335540e+01 4.460965445016760178e-01 -4.494764160407994424e+00 4.460965445016760178e-01 1.996006435196768081e+01
1.245050127732419121e+01 5.079107041208984485e-01 -7.616374377568038589e+00 5.079107041208984485e-01 1.108573646779043109e+01 -1.852099855445720478e-01 -7.616374377568038589e+00 -1.852099855445720478e-01 1.734625827949336596e+01
3.558368280252391269e+00 5.626338176907131478e-02 -2.975352548780320294e+00 5.626338176907131478e-02 8.749256168953337465e+00 -6.683892134849540589e-01 -2.975352548780320294e+00 -6.683892134849540589e-01 1.788931422277717687e+01
8.824855244594838055e+00 8.529598424185139693e-01 -1.363156730784850001e+00 8.529598424185139693e-01 1.507340365067336307e+01 1.927553622766535968e+00 -1.363156730784850001e+00 1.927553622766535968e+00 1.771365583751227035e+01
2.151742080973679094e+01 -3.641184335821225915e+00 -1.375149510852017753e+00 -3.641184335821225915e+00 6.331403210532874581e+00 3.917250770679179706e+00 -1.375149510852017753e+00 3.917250770679179706e+00 2.195902248351862340e+01
1.441602880789629992e+01 9.872634796165863369e-01 -3.249733407118332806e+00 9.872634796165863369e-01 1.303176362172666813e+01 -4.044414925720949544e-02 -3.249733407118332806e+00 -4.044414925720949544e-02 2.089101601370830252e+01
6.305790197206872172e+00 2.455226258500537995e-01 -2.301751610193479181e+00 2.455226258500537995e-01 5.282761496259119838e+00 1.474230411116146611e+00 -2.301751610193479181e+00 1.474230411116146611e+00 1.116471638369319486e+01
9.796754791104374860e+00 1.168734197708874989e+00 -2.603702300576046902e+00 1.168734197708874989e+00 1.391194455622009407e+01 4.994343854142976546e+00 -2.603702300576046902e+00 4.994343854142976546e+00 1.458865509286958684e+01
1.531617510565178897e+01 3.808957322883647745e+00 -1.173606870062498198e+00 3.808957322883647745e+00 1.946014560548443839e+01 -6.479685508180804687e-01 -1.173606870062498198e+00 -6.479685508180804687e-01 2.363959071000688184e+01
1.664770305863429556e+01 -3.698677994705426575e-01 -1.270110969439820714e+00 -3.698677994705426575e-01 2.064871923257744513e+01 -2.058873595779885157e+00 -1.270110969439820714e+00 -2.058873595779885157e+00 2.286947598482133870e+01
1.214031644876949656e+01 4.985044121619162660e-01 -2.285971126567133638e+00 4.985044121619162660e-01 3.218308060964946815e+00 -8.265427897180565031e-01 -2.285971126567133638e+00 -8.265427897180565031e-01 1.768003149210585789e+01
1.640964928046742699e+01 -4.028401948781508146e+00 -2.114449184831049600e+00 -4.028401948781508146e+00 8.001819229015969981e+00 -4.944260919613689409e-01 -2.114449184831049600e+00 -4.944260919613689409e-01 1.717234359407667910e+01
1.507772415140838440e+01 6.407709453335040939e-01 -1.834653169742191503e+00 6.407709453335040939e-01 5.368270599371308016e+00 1.180591356676737202e+00 -1.834653169742191503e+00 1.180591356676737202e+00 1.776534685079046838e+01
1.637905703535263413e+01 -1.680558539266878482e+00 3.233536372972691364e+00 -1.680558539266878482e+00 2.198621451392940074e+01 1.863453278901876287e+00 3.233536372972691364e+00 1.863453278901876287e+00 2.267853116422041282e+01
1.609724607821694775e+01 7.338070194571542915e-02 -3.693030344641485829e+00 7.338070194571542915e-02 1.128697880471720438e+01 3.381644300635799016e+00 -3.693030344641485829e+00 3.381644300635799016e+00 1.936208186346510018e+01
1.133962885291191824e+01 -1.418383579866371313e+00 -6.338348948261598004e+00 -1.418383579866371313e+00 1.205764570152134851e+01 4.569859500537788222e+00 -6.338348948261598004e+00 4.569859500537788222e+00 2.305079170737156247e+01
1.121686269637620192e+01 1.836309684597995595e+00 -3.060425726930455781e+00 1.836309684597995595e+00 5.426665169843754022e+00 -2.762446797313266700e+00 -3.060425726930455781e+00 -2.762446797313266700e+00 1.714134448566396429e+01
1.188818713793898496e+01 2.954370027273466537e+00 -3.163362141303415420e+00 2.954370027273466537e+00 5.704630300091985795e+00 8.044268633098625720e-01 -3.163362141303415420e+00 8.044268633098625720e-01 1.868307545534879210e+01
9.421471834882984453e+00 2.562676918036099316e+00 2.012704298687702842e+00 2.562676918036099316e+00 6.231469834787396245e+00 1.840872365867491478e+00 2.012704298687702842e+00 1.840872365867491478e+00 1.206740073344997199e+01
4.923627138076478893e+00 -1.287916082334371604e+00 -4.366708780999358774e-01 -1.287916082334371604e+00 1.525873957009586057e+01 2.826828070597916742e+00 -4.366708780999358774e-01 2.826828070597916742e+00 1.067480453689442577e+01
9.282101780903710520e+00 9.407357553333823841e-01 -5.188960131646529916e+00 9.407357553333823841e-01 -3.379484050268288242e-01 3.914828965334435917e+00 -5.188960131646529916e+00 3.914828965334435917e+00 1.526830085759690547e+01
9.458719201085134642e+00 3.796518930633047129e-01 -6.544279900335792099e+00 3.796518930633047129e-01 9.723325653051762885e+00 4.208206464796613311e+00 -6.544279900335792099e+00 4.208206464796613311e+00 2.822022240071808596e+01
1.365760655891517672e+01 -2.368515939937356762e+00 -2.366346002348466815e+00 -2.368515939937356762e+00 1.080561108717468954e+01 2.547652037677313075e+00 -2.366346002348466815e+00 2.547652037677313075e+00 1.451630123639004211e+01
1.066142648417006633e+01 -1.377668188410550387e+00 -5.163967100488782158e-01 -1.377668188410550387e+00 7.103833181627991600e+00 3.057296754425047780e+00 -5.163967100488782158e-01 3.057296754425047780e+00 1.353763032213660367e+01
5.760205889143150237e+00 -2.108355922583675657e+00 2.267972269245002725e-01 -2.108355922583675657e+00 6.286667622204780592e+00 -1.019066627403752756e+00 2.267972269245002725e-01 -1.019066627403752756e+00 1.738969578015667850e+01
6.815657720046322865e+00 2.752943633140494395e+00 1.437593339860873343e+00 2.752943633140494395e+00 5.812371576268916762e+00 -5.413606795424898976e-01 1.437593339860873343e+00 -5.413606795424898976e-01 1.001532756707812588e+01
1.074229540824172702e+01 7.669470037946186647e-01 2.749746850085434069e+00 7.669470037946186647e-01 4.086292783742246471e+00 1.133123971919772988e+00 2.749746850085434069e+00 1.133123971919772988e+00 2.531707840009662291e+01
1.029330238454773827e+01 1.131622452606032336e+00 -2.771378415424679442e+00 1.131622452606032336e+00 1.379902061660541435e+01 2.936526165493399620e+00 -2.771378415424679442e+00 2.936526165493399620e+00 1.227692564465576552e+01
1.527411319042428950e+01 -4.632128959561821802e+00 -3.449832651922385640e+00 -4.632128959561821802e+00 2.015850708191593199e+01 3.245325721390900586e+00 -3.449832651922385640e+00 3.245325721390900586e+00 1.565082016818838717e+01
1.704451102075976010e+01 -6.016956004571432537e+00 5.175979254998707146e-01 -6.016956004571432537e+00 4.808048899803959664e+00 5.156207636164224617e+00 5.175979254998707146e-01 5.156207636164224617e+00 2.353995763812415021e+01
8.622547313316379913e+00 -4.424803047609056073e+00 -8.260584286491078343e-01 -4.424803047609056073e+00 5.469773304980180662e+00 -2.525458613498087271e-02 -8.260584286491078343e-01 -2.525458613498087271e-02 1.975141129068599710e+01
1.460642145687862126e+01 5.813398421735087584e-01 9.008534649161531460e-01 5.813398421735087584e-01 5.868809328022808636e+00 3.434129666067071263e+00 9.008534649161531460e-01 3.434129666067071263e+00 1.740994207283873152e+01
1.284901419041235648e+01 2.287143280353989283e+00 -2.486545045218755412e+00 2.287143280353989283e+00 1.034385999292459424e+01 -1.125955428099333355e+00 -2.486545045218755412e+00 -1.125955428099333355e+00 1.456526045323936813e+01
2.016860116659282198e+01 -1.044250496822666996e+01 -7.871061114842601292e-01 -1.044250496822666996e+01 -2.612827663115038668e+00 5.657337285319842535e-03 -7.871061114842601292e-01 5.657337285319842535e-03 1.746742604450155412e+01
1.907313142417311269e+01 -3.838135233677112623e+00 -3.143445214148248734e+00 -3.838135233677112623e+00 1.178194738107579553e+01 6.990424880944362762e+00 -3.143445214148248734e+00 6.990424880944362762e+00 2.320498321006066433e+01
1.368227022454604125e+01 -1.000534972905778419e+00 -3.296396752500842631e+00 -1.000534972905778419e+00 1.017302584390641762e+01 -8.854023468166922761e-01 -3.296396752500842631e+00 -8.854023468166922761e-01 1.754586347600709217e+01
1.175031860327345079e+01 -2.518367567448680067e+00 8.118860237716712946e-02 -2.518367567448680067e+00 1.099446346795775398e+01 3.091686390320399269e+00 8.118860237716712946e-02 3.091686390320399269e+00 1.864450093981772483e+01
8.610370476043010868e+00 -5.267010074296910815e+00 -2.140749990874958986e+00 -5.267010074296910815e+00 8.892384864827654667e+00 3.110266480925268251e+00 -2.140749990874958986e+00 3.110266480925268251e+00 9.097657085848078751e+00
1.782520419169113879e+01 -1.205768445040686365e-01 -3.444834045690835733e+00 -1.205768445040686365e-01 -5.494223851740706266e+00 3.870829605831143994e+00 -3.444834045690835733e+00 3.870829605831143994e+00 1.793026210754609195e+01
9.324066823917419811e+00 -4.076644311248790231e+00 -4.867625311284639267e+00 -4.076644311248790231e+00 -4.331766973485406069e+00 -3.970113937744231825e-01 -4.867625311284639267e+00 -3.970113937744231825e-01 9.574781800426601208e+00
6.124377602442857338e+00 5.387335051045125667e+00 1.475208820475422788e+00 5.387335051045125667e+00 1.552257104435217094e+01 1.372059287232125557e+00 1.475208820475422788e+00 1.372059287232125557e+00 1.845836098102077116e+01
1.315415197662860614e+01 -5.443443437272134089e-01 9.124684433495411362e-01 -5.443443437272134089e-01 6.936331436764181291e+00 7.765615710132485638e+00 9.124684433495411362e-01 7.765615710132485638e+00 2.661735537691056308e+01
2.904147596756322258e+01 -6.039188177636174437e+00 -1.276441568610979083e+01 -6.039188177636174437e+00 1.185488247083807778e+01 -3.191639140508636174e+00 -1.276441568610979083e+01 -3.191639140508636174e+00 2.437501549543432589e+01
1.228477229397273263e+01 1.305508076358585567e+00 -4.622044562106311538e+00 1.305508076358585567e+00 5.111743290034742593e+00 2.954728454464488063e+00 -4.622044562106311538e+00 2.954728454464488063e+00 1.341413762399746545e+01
3.898457561203973132e+00 4.152398382432353152e+00 -1.206630607743414796e+00 4.152398382432353152e+00 1.093693106018803896e+01 2.144092082250704578e+00 -1.206630607743414796e+00 2.144092082250704578e+00 1.409340558709100577e+01
1.935336336422402326e+01 -5.007460351890104633e+00 -3.558232659153085731e+00 -5.007460351890104633e+00 1.085094728322828050e+00 -4.726501870235770397e+00 -3.558232659153085731e+00 -4.726501870235770397e+00 1.500903206461009098e+01
2.601881102956799907e+01 -6.440103521626323158e+00 -3.642598670142555672e+00 -6.440103521626323158e+00 2.087079878269038602e+01 1.285658959753071207e+00 -3.642598670142555672e+00 1.285658959753071207e+00 1.453027989683990029e+01
6.505811944239892952e+00 -1.155462704419683240e+00 -2.329863926635256988e+00 -1.155462704419683240e+00 1.888222535245770572e+01 1.372698643843137667e+00 -2.329863926635256988e+00 1.372698643843137667e+00 2.071852534983431937e+01
1.266950029103861830e+01 -2.788766977799934654e+00 -5.364008221964560175e-01 -2.788766977799934654e+00 7.607026208937330836e+00 2.798551071392696432e+00 -5.364008221964560175e-01 2.798551071392696432e+00 2.260144994370793015e+01
4.131309301490331265e+00 3.292085938987200144e+00 5.248245926485840540e-01 3.292085938987200144e+00 3.040508799775288207e+00 2.969307722639841440e+00 5.248245926485840540e-01 2.969307722639841440e+00 1.169881164720145428e+01
7.565729584198772173e+00 -3.181012258655903313e+00 2.323722228280988844e+00 -3.181012258655903313e+00 7.629752430292399801e+00 7.039984705519184871e+00 2.323722228280988844e+00 7.039984705519184871e+00 1.733307397119658688e+01
1.855824592065935263e+01 -7.092247264858741573e+00 -3.450026396349965108e+00 -7.092247264858741573e+00 1.227219828062282758e+01 1.751033074798902023e+00 -3.450026396349965108e+00 1.751033074798902023e+00 1.927796772023148364e+01
1.638402657992004308e+01 -5.757164101630153574e+00 -9.384224468680837816e+00 -5.757164101630153574e+00 2.570533254574445792e+01 -3.904909250642369045e+00 -9.384224468680837816e+00 -3.904909250642369045e+00 3.440442828239747541e+01
1.319695012068090456e+01 -1.198938953968510912e+00 1.136272318867938891e+00 -1.198938953968510912e+00 7.596709318168724856e+00 2.235801007045435718e+00 1.136272318867938891e+00 2.235801007045435718e+00 1.967148202708809634e+01
1.077931028113077971e+01 -1.494922315981631611e+00 -6.347028698617157794e+00 -1.494922315981631611e+00 7.501648614776869728e+00 4.394520793578388762e+00 -6.347028698617157794e+00 4.394520793578388762e+00 1.781409294876945637e+01
9.799883763609782861e+00 -4.447228965101376552e+00 4.327010547788329831e+00 -4.447228965101376552e+00 -7.179219138399154154e+00 1.453315700158945400e+00 4.327010547788329831e+00 1.453315700158945400e+00 1.120588707455382682e+01
1.241333140889307529e+01 -4.630879308003934547e+00 -6.659916261936584370e+00 -4.630879308003934547e+00 1.408616923272091270e+01 -5.149630012847903338e-01 -6.659916261936584370e+00 -5.149630012847903338e-01 1.501852554156148400e+01
2.597311640632338836e+01 -9.154579198670919737e+00 2.278608838319114760e+00 -9.154579198670919737e+00 7.109354897814005980e+00 2.754726081874225407e+00 2.278608838319114760e+00 2.754726081874225407e+00 2.097803632335561375e+01
2.504049854250558482e+01 -4.090526099484858014e-01 -4.020129061723865860e+00 -4.090526099484858014e-01 1.599467777825638848e+01 -7.734471293399091119e-01 -4.020129061723865860e+00 -7.734471293399091119e-01 2.217615186350690948e+01
1.738518153499407859e+01 -1.337805272436079322e-02 -1.009112038714720683e+01 -1.337805272436079322e-02 7.685318332122185403e+00 -3.881098060492854440e+00 -1.009112038714720683e+01 -3.881098060492854440e+00 2.586864941097255155e+01
1.693266236271814051e+01 -7.927421368825461556e+00 -8.373895714960918113e+00 -7.927421368825461556e+00 7.550917822710323080e+00 -1.289746967174997705e+00 -8.373895714960918113e+00 -1.289746967174997705e+00 1.390248982815421819e+01
2.507875337973114682e+01 -1.046965824975192971e+00 -5.979660202262389035e+00 -1.046965824975192971e+00 2.890289057851564536e+00 1.446466834644012156e+00 -5.979660202262389035e+00 1.446466834644012156e+00 2.423624604918054359e+01
2.016782618888250056e+01 6.324496221689667186e-01 1.134238002378354704e+00 6.324496221689667186e-01 1.117477171948456771e+01 3.512722093114673871e+00 1.134238002378354704e+00 3.512722093114673871e+00 2.638224651404290455e+01
1.561623678786545710e+01 -4.252690185368854930e-02 -2.881531809724973581e+00 -4.252690185368854930e-02 2.349661700967462608e+01 -9.152002397784112508e-01 -2.881531809724973581e+00 -9.152002397784112508e-01 2.138963667252676615e+01
1.062345257636449425e+01 -2.533934932204688018e+00 -5.992728263902622921e+00 -2.533934932204688018e+00 1.417182364415378615e+01 2.283471823451358740e-01 -5.992728263902622921e+00 2.283471823451358740e-01 1.929921179671556786e+01
2.119324763351086105e+01 -2.094057583828312641e+00 2.996877554684397094e+00 -2.094057583828312641e+00 4.163083387613360387e+00 -1.794596509340140811e+00 2.996877554684397094e+00 -1.794596509340140811e+00 2.113341935427432716e+01
1.389207606517182292e+01 -5.614665075145469864e+00 -4.447645515620672008e+00 -5.614665075145469864e+00 4.512239907775660974e+00 1.568748630110779752e-01 -4.447645515620672008e+00 1.568748630110779752e-01 1.803483566233209956e+01
2.117030829328545494e+01 2.297682977214310807e+00 2.133068024321433942e+00 2.297682977214310807e+00 1.272348717578363431e+00 -9.806858563002642803e-01 2.133068024321433942e+00 -9.806858563002642803e-01 1.788015979857404858e+01
1.755373918698819580e+01 -5.718008352816347006e+00 -3.307120506567364782e+00 -5.718008352816347006e+00 1.091213177345786889e+01 1.180358863363641930e+00 -3.307120506567364782e+00 1.180358863363641930e+00 2.014022729517381194e+01
1.607439392298395120e+01 -6.905758566092144335e+00 -3.561216323337809131e-01 -6.905758566092144335e+00 6.376129111639590175e-01 -2.618891863698275646e+00 -3.561216323337809131e-01 -2.618891863698275646e+00 1.423043133349656841e+01
1.579765906985084989e+01 1.352578285039012007e+00 -3.909907856873918508e+00 1.352578285039012007e+00 1.845444734358366423e+00 2.941001661770485054e+00 -3.909907856873918508e+00 2.941001661770485054e+00 2.191276600143403286e+01
2.393811212402129485e+01 -4.008630329947026283e+00 -2.558201421759013772e-01 -4.008630329947026283e+00 2.808975490318608692e+01 4.179367606751412723e+00 -2.558201421759013772e-01 4.179367606751412723e+00 9.720700416058063453e+00
1.956163862387192864e+01 -6.216977751604453317e+00 1.715820025086337797e+00 -6.216977751604453317e+00 1.888817330638439174e+01 2.795189605574193159e+00 1.715820025086337797e+00 2.795189605574193159e+00 1.628196201547119415e+01
2.193080360764167480e+01 -1.128368514944835255e+01 -2.607373757478677501e+00 -1.128368514944835255e+01 8.462388482257830802e+00 2.698898625067208012e+00 -2.607373757478677501e+00 2.698898625067208012e+00 1.845171554715479445e+01
1.655433761898375877e+01 1.137328225998246900e+00 -2.519074734609344723e+00 1.137328225998246900e+00 4.955207479771927659e+00 -7.878646209182336158e+00 -2.519074734609344723e+00 -7.878646209182336158e+00 2.307608504239205871e+01
1.972537203961931951e+01 -5.326935225747233105e+00 -2.274559579782703955e-01 -5.326935225747233105e+00 3.618370929473746056e+00 2.797902027560305260e+00 -2.274559579782703955e-01 2.797902027560305260e+00 2.845571875244090521e+01
2.225439555058487073e+01 -7.316215823140581165e+00 -5.299006966511656813e-01 -7.316215823140581165e+00 7.589753893218623482e+00 8.226969628306044502e-01 -5.299006966511656813e-01 8.226969628306044502e-01 1.537947141014199204e+01
1.829744654669466186e+01 -7.728465216144126959e-01 -3.234078857369913518e+00 -7.728465216144126959e-01 1.459131907874880518e+01 -7.386215684825034877e-01 -3.234078857369913518e+00 -7.386215684825034877e-01 3.186817810428320996e+01
2.903334838882626556e+01 -9.602574438562873738e+00 -2.304405908851317797e+00 -9.602574438562873738e+00 1.454922810185716919e+01 2.609185267876545478e+00 -2.304405908851317797e+00 2.609185267876545478e+00 1.273882204722654699e+01
1.868800625103068924e+01 -3.497813459412435488e+00 -2.955193441090679052e+00 -3.497813459412435488e+00 8.326883629608763826e+00 7.045583919476230861e+00 -2.955193441090679052e+00 7.045583919476230861e+00 2.379816083675927985e+01
8.593553459729115218e+00 5.935263666682558892e+00 2.562250680295424132e+00 5.935263666682558892e+00 7.497308739599089833e+00 1.357363772400224322e+00 2.562250680295424132e+00 1.357363772400224322e+00 1.190487822037495569e+01
2.986144113396495925e+01 -5.658402879671530217e-01 4.674258685338972263e+00 -5.658402879671530217e-01 1.671644358153947962e+01 8.132315788212105545e+00 4.674258685338972263e+00 8.132315788212105545e+00 1.291636944066035042e+01
1.315828842015742772e+01 1.111812084886033780e+00 -2.158855407632258139e+00 1.111812084886033780e+00 1.340291982164061579e+01 -3.259953425673148608e+00 -2.158855407632258139e+00 -3.259953425673148608e+00 2.428629992204569632e+01
1.545625232679172711e+01 3.991135208136601525e-03 2.197720539804695061e+00 3.991135208136601525e-03 3.257626555097919407e+01 1.879708436375791547e-01 2.197720539804695061e+00 1.879708436375791547e-01 1.825561712478025811e+01
1.260054664926309442e+01 -4.247381588053177559e+00 -5.341427308930176032e+00 -4.247381588053177559e+00 -2.824755005222816973e+00 4.752870486829332997e+00 -5.341427308930176032e+00 4.752870486829332997e+00 1.223356564176348549e+01
1.088467818806986109e+01 -2.912385609817000454e+00 -8.866829974829924410e+00 -2.912385609817000454e+00 8.110936090628714012e+00 2.328759583398054112e+00 -8.866829974829924410e+00 2.328759583398054112e+00 1.833553670115678003e+01
2.267650653495221036e+01 -1.672857198270595314e+00 5.582154760197638232e+00 -1.672857198270595314e+00 1.555884000119504407e+01 6.914738620310452444e-02 5.582154760197638232e+00 6.914738620310452444e-02 1.938958388496000396e+01
1.847790010654215820e+01 -2.324148466021663140e+00 2.272748069384836089e+00 -2.324148466021663140e+00 2.243068360523940896e+01 2.284953968322341211e+00 2.272748069384836089e+00 2.284953968322341211e+00 2.396447105339347772e+01
2.064424373630036058e+01 -6.617428108968411493e+00 -4.874125436829929825e+00 -6.617428108968411493e+00 1.164762436943496349e+00 3.217562144918765910e+00 -4.874125436829929825e+00 3.217562144918765910e+00 2.443010672341653944e+01
1.566018771126185349e+01 -2.669410723189616363e-01 -2.912094993175631252e+00 -2.669410723189616363e-01 5.250231806868530526e+00 3.131268376874880133e+00 -2.912094993175631252e+00 3.131268376874880133e+00 1.812317343408694725e+01
9.389813995416504966e+00 -1.593150740764410989e+00 1.462005137735883586e+00 -1.593150740764410989e+00 3.744992600118293602e+00 1.427770497382595316e+00 1.462005137735883586e+00 1.427770497382595316e+00 1.581963937515973839e+01
2.284051119289821230e+01 -1.265848592033072872e+00 -4.602272943271828787e+00 -1.265848592033072872e+00 2.036345962463084547e+01 -5.055276476616712422e-01 -4.602272943271828787e+00 -5.055276476616712422e-01 2.975793317353063827e+01
2.767867766396939544e+01 -3.055543367355453288e+00 -7.854680023490758778e+00 -3.055543367355453288e+00 2.341925485974215349e+01 -6.724006918579865655e+00 -7.854680023490758778e+00 -6.724006918579865655e+00 2.988071870450911405e+01
3.810899610770131574e+01 -1.045336434339249720e+01 5.299791631443352635e+00 -1.045336434339249720e+01 1.426181793076444038e+01 5.092068543414049131e+00 5.299791631443352635e+00 5.092068543414049131e+00 2.577456711693997349e+01
9.591937869488761592e+00 -5.006530378637724432e+00 4.163664620896099233e-01 -5.006530378637724432e+00 3.144355812957872143e+00 8.364043810818503344e-01 4.163664620896099233e-01 8.364043810818503344e-01 7.675204873002538619e+00
1.485976167038150564e+01 -2.646190453544219778e+00 -3.759455621637099121e+00 -2.646190453544219778e+00 1.628528473240418162e+00 -5.927446079029728310e+00 -3.759455621637099121e+00 -5.927446079029728310e+00 2.696374135175847897e+01
2.483003397082603314e+01 1.247123193107519290e+00 -4.849597392298371723e+00 1.247123193107519290e+00 8.019595280246383240e+00 -4.861696731800708271e+00 -4.849597392298371723e+00 -4.861696731800708271e+00 2.716092474292746317e+01
2.088487431535403616e+01 -8.161735879540044536e+00 -1.362817678036585933e+00 -8.161735879540044536e+00 1.773724422157006941e+01 2.535533323732218403e+00 -1.362817678036585933e+00 2.535533323732218403e+00 1.600699023662906484e+01
1.531492545409390083e+01 -6.117044375858974981e+00 3.961918548457620481e+00 -6.117044375858974981e+00 4.678424190531931259e+00 1.432226619216922625e+00 3.961918548457620481e+00 1.432226619216922625e+00 2.548698257586242022e+01
1.901906704165706685e+01 -5.983021668080892752e+00 -5.387005685518241549e+00 -5.983021668080892752e+00 2.424294960637479335e+01 -3.336075611269113228e+00 -5.387005685518241549e+00 -3.336075611269113228e+00 2.322002746486221270e+01
1.666538223765091686e+01 3.105016006937865392e+00 -1.295459521622177590e+01 3.105016006937865392e+00 -1.283605268820729117e+00 4.845606257090235403e+00 -1.295459521622177590e+01 4.845606257090235403e+00 1.692443791176739509e+01
2.117992770411477110e+01 -3.152958065542399435e+00 -1.148753334892606759e+01 -3.152958065542399435e+00 1.911343026510963838e+01 -7.595072177755678666e+00 -1.148753334892606759e+01 -7.595072177755678666e+00 2.223702636265237231e+01
1.666589566038400250e+01 -7.580744777336179574e+00 1.958736788385448069e+00 -7.580744777336179574e+00 7.867118415741360060e+00 -3.156774830765714523e-01 1.958736788385448069e+00 -3.156774830765714523e-01 2.386864505951268001e+01
9.263512003077462253e+00 3.972429183653805929e+00 1.968017146466503275e+00 3.972429183653805929e+00 1.863930858915859190e+01 -6.192769385378401381e+00 1.968017146466503275e+00 -6.192769385378401381e+00 1.778062359890510891e+01
1.572873448973946076e+01 -1.904139608693559804e+00 -1.499300940044927088e+00 -1.904139608693559804e+00 5.860846432049293675e+00 -5.960479503932023526e+00 -1.499300940044927088e+00 -5.960479503932023526e+00 2.148907599998191742e+01
2.006298139189788543e+01 -1.382474018936658666e+01 -4.054102147099921671e-01 -1.382474018936658666e+01 1.479737596470092420e+01 6.308357310872299450e+00 -4.054102147099921671e-01 6.308357310872299450e+00 2.801935786542509632e+01
2.291178976780468801e+01 -2.080137046706729276e+00 -8.958451714632245100e+00 -2.080137046706729276e+00 2.741548554632409562e+01 -3.656955132226193061e+00 -8.958451714632245100e+00 -3.656955132226193061e+00 3.731518643902280985e+01
2.757367787144271531e+01 -1.042709259901272389e+01 -3.925339600530621365e+00 -1.042709259901272389e+01 2.578841984351190320e+01 1.032367182357081664e-01 -3.925339600530621365e+00 1.032367182357081664e-01 1.489224292366520075e+01
1.115655974329209954e+01 -1.069682359108883096e+00 -1.248101602466795468e+00 -1.069682359108883096e+00 8.868379930250560150e+00 7.317058611400551804e+00 -1.248101602466795468e+00 7.317058611400551804e+00 1.500118541529312388e+01
1.151046300193009664e+01 -2.096314706409613260e-01 -3.813384383053838533e+00 -2.096314706409613260e-01 1.855325700164918379e+00 1.603816371502659599e-01 -3.813384383053838533e+00 1.603816371502659599e-01 3.110360446972644155e+01
2.663933568221945336e+01 -1.269500674492945347e+00 7.081068211387406830e-01 -1.269500674492945347e+00 1.888166349361772234e+01 -3.827508351824380206e+00 7.081068211387406830e-01 -3.827508351824380206e+00 2.277995637205825474e+01
1.559688171955026981e+01 -7.443583409831309616e+00 -1.131864633140506449e+00 -7.443583409831309616e+00 1.989180819013144230e+01 1.675869924119455900e+00 -1.131864633140506449e+00 1.675869924119455900e+00 2.046922470764646818e+01
1.003597103583671846e+01 -5.856797173512882537e+00 1.606790348466004215e+00 -5.856797173512882537e+00 1.635827794549473779e+01 2.539950696681029907e+00 1.606790348466004215e+00 2.539950696681029907e+00 1.264429414101053339e+01
3.275510134485640634e+01 -8.904658574314812114e+00 6.776066046270462273e+00 -8.904658574314812114e+00 1.767632128631771238e+01 -2.235946315366120096e+00 6.776066046270462273e+00 -2.235946315366120096e+00 2.128726211699378723e+01
2.761139991149243400e+01 3.741524574864621311e+00 -8.836053672508930035e+00 3.741524574864621311e+00 3.032469374752879077e+01 -4.509730917438505848e+00 -8.836053672508930035e+00 -4.509730917438505848e+00 4.269850129319566179e+01
2.230245385584595041e+01 -3.450907933495451552e+00 2.775272678419026029e+00 -3.450907933495451552e+00 3.465742944315209684e+01 1.829015206899629264e+00 2.775272678419026029e+00 1.829015206899629264e+00 3.231203690064634770e+01
1.164260638876065812e+01 3.219344593652496922e+00 3.884517649639632086e+00 3.219344593652496922e+00 1.705502165595594022e+01 8.891832693209051897e+00 3.884517649639632086e+00 8.891832693209051897e+00 3.315914566135195685e+01
1.699536774670423256e+01 -2.431686310549635299e-01 -4.943689373552329513e+00 -2.431686310549635299e-01 -9.559107876235424683e+00 2.021490608478430762e+00 -4.943689373552329513e+00 2.021490608478430762e+00 1.670235836165445420e+01
2.426881448745664827e+01 -4.899486582400079726e+00 -3.033747119252765967e-01 -4.899486582400079726e+00 1.362393377740186828e+01 -9.603233169616643972e-01 -3.033747119252765967e-01 -9.603233169616643972e-01 2.311598670725204485e+01
2.627343964351428696e+01 7.328964206475309107e-01 -2.184700914271356709e+00 7.328964206475309107e-01 2.027606151334975948e+01 -4.824110312850296012e+00 -2.184700914271356709e+00 -4.824110312850296012e+00 2.659072520533977269e+01
2.582038767406251267e+01 2.459004274838337278e-01 -4.893596751801664091e+00 2.459004274838337278e-01 2.048309680866115556e+01 3.484871331650128301e+00 -4.893596751801664091e+00 3.484871331650128301e+00 3.226808597724995309e+01
3.036887716423828465e+01 -5.906889795263549736e+00 1.242889877364908280e+01 -5.906889795263549736e+00 1.715805494254269448e+01 3.137332577458117111e+00 1.242889877364908280e+01 3.137332577458117111e+00 1.698690111521900903e+01
2.065936548887293611e+01 -1.405489888210958993e+00 -5.659323165702532243e+00 -1.405489888210958993e+00 2.428338406841062636e+01 -3.869047157097413425e+00 -5.659323165702532243e+00 -3.869047157097413425e+00 2.961362263664808836e+01
2.581405223128066240e+01 -2.527880418842830546e-01 -3.687440817905818791e-01 -2.527880418842830546e-01 1.864967391603409652e+01 -8.994585050375812685e+00 -3.687440817905818791e-01 -8.994585050375812685e+00 2.516480496724055627e+01